UNK_GMX.gro created by acpype (v: 2023.10.27) on Tue Dec 16 15:54:21 2025
 373
    1  UNK   C1    1  13.211  15.026  12.405
    1  UNK   O1    2  13.225  14.931  12.182
    1  UNK   C2    3  13.296  15.005  12.280
    1  UNK   N1    4  14.037  15.469  12.930
    1  UNK   C3    5  13.435  14.944  12.310
    1  UNK   O3    6  13.829  15.396  12.976
    1  UNK   C4    7  13.506  15.040  12.412
    1  UNK   C5    8  13.426  15.082  12.541
    1  UNK   C6    9  13.282  15.124  12.501
    1  UNK   C7   10  13.652  15.007  12.446
    1  UNK   C8   11  13.725  15.135  12.489
    1  UNK   C9   12  13.657  15.210  12.608
    1  UNK  C10   13  13.499  15.210  12.600
    1  UNK  C11   14  13.702  15.364  12.612
    1  UNK  C12   15  13.633  15.435  12.731
    1  UNK  C13   16  13.516  15.390  12.781
    1  UNK  C14   17  13.439  15.269  12.730
    1  UNK  C15   18  13.857  15.375  12.621
    1  UNK  C16   19  13.909  15.514  12.663
    1  UNK  C17   20  13.852  15.562  12.798
    1  UNK  C18   21  13.695  15.564  12.787
    1  UNK  C19   22  13.903  15.704  12.836
    1  UNK  C20   23  13.844  15.821  12.757
    1  UNK  C21   24  13.690  15.823  12.758
    1  UNK  C22   25  13.640  15.686  12.710
    1  UNK  C23   26  13.904  15.467  12.910
    1  UNK  C24   27  13.704  15.135  12.737
    1  UNK  C25   28  13.412  14.968  12.646
    1  UNK  C26   29  13.635  15.856  12.898
    1  UNK  C27   30  13.658  15.442  12.483
    1  UNK  C28   31  13.515  14.942  12.176
    1  UNK  C29   32  13.426  14.797  12.358
    1  UNK  C30   33  13.640  15.933  12.662
    1  UNK  C39   34  14.108  15.397  13.034
    1  UNK   N2   35  16.645  17.956  13.116
    1  UNK  C43   36  14.259  15.390  13.004
    1  UNK  O13   37  14.320  15.519  13.008
    1  UNK  C46   38  14.366  15.567  12.882
    1  UNK  C49   39  14.505  15.510  12.847
    1  UNK   O2   40  14.607  15.569  12.928
    1  UNK  C52   41  14.738  15.526  12.891
    1  UNK  C55   42  14.846  15.627  12.933
    1  UNK  O16   43  14.875  15.627  13.074
    1  UNK  C58   44  15.003  15.686  13.097
    1  UNK  C61   45  15.028  15.723  13.245
    1  UNK   O4   46  15.140  15.654  13.301
    1  UNK  C64   47  15.267  15.707  13.261
    1  UNK  C67   48  15.317  15.822  13.351
    1  UNK   N3   49  15.456  15.854  13.325
    1  UNK   N4   50  15.554  15.771  13.366
    1  UNK   N5   51  15.667  15.822  13.327
    1  UNK  C70   52  15.509  15.964  13.260
    1  UNK  C73   53  15.644  15.944  13.263
    1  UNK  C76   54  15.753  16.031  13.204
    1  UNK  C79   55  15.954  15.893  13.232
    1  UNK  C82   56  16.103  15.882  13.212
    1  UNK  C85   57  16.175  15.776  13.166
    1  UNK   N6   58  16.191  15.988  13.235
    1  UNK   N7   59  16.311  15.952  13.204
    1  UNK   N8   60  16.304  15.825  13.159
    1  UNK  C88   61  16.423  15.760  13.109
    1  UNK  C91   62  16.494  15.678  13.217
    1  UNK   O5   63  16.606  15.619  13.155
    1  UNK  C94   64  16.681  15.534  13.240
    1  UNK  C97   65  16.804  15.491  13.161
    1  UNK   O6   66  16.887  15.404  13.238
    1  UNK C100   67  16.992  15.350  13.160
    1  UNK C103   68  17.069  15.244  13.241
    1  UNK   O7   69  17.126  15.145  13.155
    1  UNK C106   70  17.247  15.188  13.093
    1  UNK C109   71  17.285  15.094  12.978
    1  UNK   O8   72  17.325  14.966  13.027
    1  UNK C112   73  17.379  14.883  12.924
    1  UNK   N9   74  15.893  16.025  13.245
    1  UNK C115   75  15.924  16.091  13.373
    1  UNK C118   76  15.934  16.242  13.380
    1  UNK C121   77  15.991  16.321  13.476
    1  UNK  N10   78  15.886  16.325  13.279
    1  UNK  N11   79  15.917  16.448  13.306
    1  UNK  N12   80  15.984  16.449  13.424
    1  UNK C124   81  16.037  16.574  13.479
    1  UNK C127   82  16.051  16.687  13.374
    1  UNK   O9   83  16.100  16.809  13.429
    1  UNK  C31   84  16.135  16.904  13.329
    1  UNK  C32   85  16.213  17.021  13.392
    1  UNK  O10   86  16.172  17.144  13.333
    1  UNK  C33   87  16.265  17.251  13.349
    1  UNK  C34   88  16.212  17.376  13.276
    1  UNK  O11   89  16.305  17.485  13.284
    1  UNK  C35   90  16.253  17.606  13.228
    1  UNK  C36   91  16.309  17.733  13.295
    1  UNK  O12   92  16.435  17.776  13.243
    1  UNK  C37   93  16.464  17.911  13.282
    1  UNK  C38   94  16.611  17.949  13.257
    1  UNK   H1   95  13.657  15.573  12.889
    1  UNK   H2   96  13.475  15.284  12.525
    1  UNK   H3   97  13.513  15.133  12.355
    1  UNK   H4   98  13.114  15.069  12.378
    1  UNK   H5   99  13.188  14.933  12.456
    1  UNK   H6  100  13.314  15.103  12.238
    1  UNK   H7  101  13.220  15.138  12.590
    1  UNK   H8  102  13.282  15.222  12.452
    1  UNK   H9  103  13.660  14.930  12.523
    1  UNK  H10  104  13.706  14.967  12.361
    1  UNK  H11  105  13.734  15.196  12.401
    1  UNK  H12  106  13.828  15.110  12.514
    1  UNK  H13  107  13.470  15.442  12.864
    1  UNK  H14  108  13.336  15.299  12.715
    1  UNK  H15  109  13.440  15.197  12.812
    1  UNK  H16  110  13.898  15.303  12.691
    1  UNK  H17  111  13.902  15.349  12.525
    1  UNK  H18  112  13.888  15.587  12.586
    1  UNK  H19  113  14.018  15.510  12.667
    1  UNK  H20  114  14.012  15.709  12.825
    1  UNK  H21  115  13.883  15.721  12.941
    1  UNK  H22  116  13.883  15.915  12.795
    1  UNK  H23  117  13.880  15.814  12.654
    1  UNK  H24  118  13.531  15.684  12.713
    1  UNK  H25  119  13.666  15.677  12.605
    1  UNK  H26  120  13.656  15.038  12.748
    1  UNK  H27  121  13.811  15.115  12.738
    1  UNK  H28  122  13.684  15.190  12.829
    1  UNK  H29  123  13.340  14.893  12.617
    1  UNK  H30  124  13.505  14.915  12.667
    1  UNK  H31  125  13.375  15.005  12.741
    1  UNK  H32  126  13.211  14.844  12.220
    1  UNK  H33  127  13.526  15.856  12.897
    1  UNK  H34  128  13.666  15.784  12.974
    1  UNK  H35  129  13.667  15.954  12.931
    1  UNK  H36  130  13.654  15.382  12.392
    1  UNK  H37  131  13.559  15.486  12.494
    1  UNK  H38  132  13.725  15.524  12.459
    1  UNK  H39  133  13.462  14.889  12.098
    1  UNK  H40  134  13.535  15.043  12.140
    1  UNK  H41  135  13.611  14.891  12.186
    1  UNK  H42  136  13.395  14.730  12.277
    1  UNK  H43  137  13.523  14.761  12.393
    1  UNK  H44  138  13.355  14.782  12.439
    1  UNK  H45  139  13.532  15.931  12.653
    1  UNK  H46  140  13.670  16.032  12.695
    1  UNK  H47  141  13.680  15.920  12.561
    1  UNK  H71  142  14.090  15.530  12.869
    1  UNK  H76  143  14.068  15.295  13.041
    1  UNK  H79  144  14.090  15.445  13.130
    1  UNK  H82  145  14.276  15.338  12.909
    1  UNK  H85  146  14.307  15.329  13.080
    1  UNK  H88  147  14.373  15.676  12.887
    1  UNK  H91  148  14.294  15.545  12.804
    1  UNK  H94  149  14.525  15.533  12.742
    1  UNK  H97  150  14.506  15.401  12.856
    1  UNK H100  151  14.744  15.517  12.782
    1  UNK H103  152  14.758  15.427  12.931
    1  UNK H106  153  14.818  15.727  12.903
    1  UNK H109  154  14.937  15.602  12.877
    1  UNK H112  155  15.016  15.776  13.037
    1  UNK H115  156  15.080  15.617  13.062
    1  UNK H118  157  14.940  15.694  13.304
    1  UNK H121  158  15.038  15.831  13.258
    1  UNK H124  159  15.267  15.738  13.156
    1  UNK H127  160  15.338  15.625  13.267
    1  UNK H130  161  15.308  15.794  13.457
    1  UNK H133  162  15.256  15.911  13.337
    1  UNK H136  163  15.451  16.046  13.220
    1  UNK H139  164  15.907  15.844  13.146
    1  UNK H142  165  15.926  15.833  13.318
    1  UNK H145  166  16.148  15.675  13.136
    1  UNK H148  167  16.490  15.835  13.069
    1  UNK H151  168  16.394  15.696  13.026
    1  UNK H154  169  16.427  15.601  13.257
    1  UNK H157  170  16.525  15.742  13.300
    1  UNK H160  171  16.621  15.447  13.268
    1  UNK H163  172  16.709  15.586  13.331
    1  UNK H166  173  16.862  15.579  13.131
    1  UNK H169  174  16.771  15.441  13.069
    1  UNK H172  175  17.059  15.429  13.126
    1  UNK H175  176  16.950  15.303  13.071
    1  UNK H178  177  16.997  15.191  13.305
    1  UNK H181  178  17.143  15.289  13.307
    1  UNK H184  179  17.327  15.193  13.167
    1  UNK H187  180  17.235  15.289  13.053
    1  UNK H190  181  17.202  15.084  12.907
    1  UNK H193  182  17.368  15.140  12.923
    1  UNK H196  183  17.446  14.938  12.859
    1  UNK H199  184  17.296  14.848  12.863
    1  UNK H202  185  17.405  14.726  13.073
    1  UNK H205  186  17.556  14.794  13.016
    1  UNK H208  187  15.721  16.135  13.212
    1  UNK H211  188  15.754  16.013  13.096
    1  UNK  H48  189  16.020  16.053  13.408
    1  UNK  H49  190  15.854  16.054  13.447
    1  UNK  H50  191  16.041  16.298  13.569
    1  UNK  H51  192  16.134  16.553  13.524
    1  UNK  H52  193  15.973  16.605  13.561
    1  UNK  H53  194  15.955  16.707  13.327
    1  UNK  H54  195  16.118  16.652  13.295
    1  UNK  H55  196  16.043  16.939  13.282
    1  UNK  H56  197  16.195  16.859  13.250
    1  UNK  H57  198  16.320  17.003  13.378
    1  UNK  H58  199  16.196  17.026  13.499
    1  UNK  H59  200  16.362  17.222  13.308
    1  UNK  H60  201  16.279  17.272  13.455
    1  UNK  H61  202  16.116  17.404  13.320
    1  UNK  H62  203  16.194  17.352  13.171
    1  UNK  H63  204  16.145  17.609  13.241
    1  UNK  H64  205  16.270  17.608  13.120
    1  UNK  H65  206  16.316  17.719  13.403
    1  UNK  H66  207  16.236  17.813  13.279
    1  UNK  H67  208  16.398  17.980  13.230
    1  UNK  H68  209  16.445  17.922  13.389
    1  UNK  H69  210  16.677  17.878  13.306
    1  UNK  H70  211  16.631  18.046  13.304
    1  UNK  C40  212  16.603  18.836  12.403
    1  UNK  O14  213  16.485  18.869  12.194
    1  UNK  C44  214  16.520  18.771  12.292
    1  UNK  C47  215  16.394  18.697  12.344
    1  UNK  O17  216  16.595  18.171  13.081
    1  UNK  C50  217  16.441  18.596  12.456
    1  UNK  C53  218  16.531  18.651  12.572
    1  UNK  C56  219  16.647  18.732  12.508
    1  UNK  C59  220  16.331  18.503  12.512
    1  UNK  C62  221  16.397  18.377  12.569
    1  UNK  C65  222  16.500  18.403  12.683
    1  UNK  C68  223  16.593  18.526  12.649
    1  UNK  C71  224  16.593  18.275  12.708
    1  UNK  C74  225  16.709  18.308  12.806
    1  UNK  C77  226  16.744  18.436  12.833
    1  UNK  C80  227  16.682  18.559  12.771
    1  UNK  C83  228  16.512  18.157  12.767
    1  UNK  C86  229  16.598  18.033  12.798
    1  UNK  C89  230  16.713  18.059  12.899
    1  UNK  C92  231  16.792  18.193  12.867
    1  UNK  C95  232  16.809  17.934  12.895
    1  UNK  C98  233  16.921  17.939  12.791
    1  UNK C101  234  17.012  18.061  12.812
    1  UNK C104  235  16.926  18.185  12.788
    1  UNK C107  236  16.646  18.067  13.040
    1  UNK C110  237  16.416  18.433  12.811
    1  UNK C113  238  16.456  18.747  12.669
    1  UNK C116  239  17.076  18.063  12.952
    1  UNK C119  240  16.654  18.222  12.574
    1  UNK C122  241  16.335  18.618  12.225
    1  UNK C125  242  16.285  18.795  12.392
    1  UNK C128  243  17.128  18.057  12.710
    1  UNK  H72  244  16.823  18.231  12.964
    1  UNK  H77  245  16.663  18.488  12.575
    1  UNK  H80  246  16.508  18.530  12.401
    1  UNK  H83  247  16.692  18.882  12.361
    1  UNK  H86  248  16.548  18.917  12.451
    1  UNK  H89  249  16.585  18.697  12.243
    1  UNK  H92  250  16.705  18.783  12.585
    1  UNK  H95  251  16.717  18.664  12.459
    1  UNK  H98  252  16.269  18.551  12.587
    1  UNK H101  253  16.262  18.470  12.434
    1  UNK H104  254  16.443  18.328  12.483
    1  UNK H107  255  16.320  18.308  12.602
    1  UNK H110  256  16.824  18.455  12.903
    1  UNK H113  257  16.763  18.626  12.742
    1  UNK H116  258  16.627  18.610  12.850
    1  UNK H119  259  16.462  18.186  12.859
    1  UNK H122  260  16.432  18.127  12.698
    1  UNK H125  261  16.638  17.992  12.706
    1  UNK H128  262  16.532  17.955  12.835
    1  UNK H131  263  16.750  17.844  12.878
    1  UNK H134  264  16.857  17.920  12.992
    1  UNK H137  265  16.979  17.847  12.795
    1  UNK H140  266  16.877  17.943  12.692
    1  UNK H143  267  16.985  18.274  12.809
    1  UNK H146  268  16.906  18.192  12.681
    1  UNK H149  269  16.367  18.530  12.807
    1  UNK H152  270  16.335  18.361  12.825
    1  UNK H155  271  16.476  18.431  12.902
    1  UNK H158  272  16.440  18.846  12.628
    1  UNK H161  273  16.357  18.712  12.699
    1  UNK H164  274  16.512  18.766  12.761
    1  UNK H167  275  16.421  18.924  12.238
    1  UNK H170  276  17.150  18.143  12.960
    1  UNK H173  277  17.003  18.080  13.031
    1  UNK H176  278  17.128  17.969  12.972
    1  UNK H179  279  16.581  18.175  12.509
    1  UNK H182  280  16.708  18.296  12.516
    1  UNK H185  281  16.726  18.142  12.590
    1  UNK H188  282  16.317  18.681  12.138
    1  UNK H191  283  16.401  18.537  12.192
    1  UNK H194  284  16.238  18.573  12.248
    1  UNK H197  285  16.237  18.845  12.307
    1  UNK H200  286  16.205  18.743  12.446
    1  UNK H203  287  16.322  18.874  12.456
    1  UNK H206  288  17.194  18.143  12.721
    1  UNK H209  289  17.190  17.968  12.723
    1  UNK H212  290  17.093  18.057  12.607
    1  UNK  H73  291  16.688  17.875  13.074
    1  UNK  C41  292  18.267  14.172  12.378
    1  UNK  O15  293  18.318  14.209  12.143
    1  UNK  C45  294  18.224  14.236  12.246
    1  UNK  N13  295  17.463  14.656  12.888
    1  UNK  C48  296  18.195  14.388  12.259
    1  UNK  O18  297  17.606  14.518  12.994
    1  UNK  C51  298  18.087  14.405  12.372
    1  UNK  C54  299  18.111  14.333  12.510
    1  UNK  C57  300  18.156  14.186  12.483
    1  UNK  C60  301  18.035  14.548  12.394
    1  UNK  C63  302  17.893  14.542  12.451
    1  UNK  C66  303  17.880  14.458  12.582
    1  UNK  C69  304  17.972  14.329  12.584
    1  UNK  C72  305  17.730  14.406  12.602
    1  UNK  C75  306  17.721  14.324  12.733
    1  UNK  C78  307  17.829  14.263  12.786
    1  UNK  C81  308  17.969  14.265  12.725
    1  UNK  C84  309  17.632  14.525  12.606
    1  UNK  C87  310  17.491  14.489  12.656
    1  UNK  C90  311  17.489  14.429  12.798
    1  UNK  C93  312  17.582  14.303  12.798
    1  UNK  C96  313  17.344  14.389  12.841
    1  UNK  C99  314  17.287  14.262  12.776
    1  UNK C102  315  17.379  14.140  12.791
    1  UNK C105  316  17.516  14.178  12.734
    1  UNK C108  317  17.529  14.539  12.901
    1  UNK C111  318  17.923  14.555  12.697
    1  UNK C114  319  18.222  14.399  12.597
    1  UNK C117  320  17.391  14.094  12.937
    1  UNK C120  321  17.685  14.311  12.486
    1  UNK C123  322  18.137  14.436  12.123
    1  UNK C126  323  18.324  14.470  12.283
    1  UNK C129  324  17.320  14.023  12.709
    1  UNK  C42  325  17.456  14.764  12.985
    1  UNK  H74  326  17.601  14.277  12.903
    1  UNK  H78  327  17.919  14.256  12.523
    1  UNK  H81  328  18.002  14.351  12.330
    1  UNK  H84  329  18.286  14.065  12.363
    1  UNK  H87  330  18.361  14.213  12.414
    1  UNK  H90  331  18.130  14.188  12.218
    1  UNK  H93  332  18.189  14.139  12.576
    1  UNK  H96  333  18.072  14.126  12.450
    1  UNK  H99  334  18.100  14.607  12.458
    1  UNK H102  335  18.029  14.604  12.301
    1  UNK H105  336  17.829  14.506  12.372
    1  UNK H108  337  17.858  14.644  12.467
    1  UNK H111  338  17.819  14.205  12.877
    1  UNK H114  339  18.006  14.163  12.721
    1  UNK H117  340  18.033  14.319  12.795
    1  UNK H120  341  17.669  14.605  12.670
    1  UNK H123  342  17.623  14.569  12.507
    1  UNK H126  343  17.441  14.422  12.586
    1  UNK H129  344  17.434  14.581  12.652
    1  UNK H132  345  17.275  14.471  12.820
    1  UNK H135  346  17.340  14.376  12.950
    1  UNK H138  347  17.188  14.241  12.818
    1  UNK H141  348  17.269  14.283  12.671
    1  UNK H144  349  17.584  14.093  12.743
    1  UNK H147  350  17.503  14.194  12.628
    1  UNK H150  351  18.029  14.574  12.697
    1  UNK H153  352  17.876  14.653  12.689
    1  UNK H156  353  17.897  14.519  12.797
    1  UNK H159  354  18.321  14.384  12.558
    1  UNK H162  355  18.210  14.507  12.610
    1  UNK H165  356  18.225  14.356  12.697
    1  UNK H168  357  18.399  14.249  12.172
    1  UNK H171  358  17.462  14.012  12.945
    1  UNK H174  359  17.425  14.173  13.004
    1  UNK H177  360  17.295  14.058  12.975
    1  UNK H180  361  17.735  14.328  12.391
    1  UNK H183  362  17.704  14.207  12.510
    1  UNK H186  363  17.579  14.319  12.462
    1  UNK H189  364  18.202  14.412  12.040
    1  UNK H192  365  18.040  14.390  12.103
    1  UNK H195  366  18.123  14.544  12.120
    1  UNK H198  367  18.388  14.472  12.195
    1  UNK H201  368  18.301  14.574  12.307
    1  UNK H204  369  18.386  14.432  12.364
    1  UNK H207  370  17.384  13.935  12.715
    1  UNK H210  371  17.222  13.994  12.746
    1  UNK H213  372  17.309  14.049  12.604
    1  UNK  H75  373  17.407  14.663  12.804
  105.69400    99.77600    30.59000
