UNK_GMX.gro created by acpype (v: 2023.10.27) on Mon Dec 22 18:28:33 2025
 405
    1  UNK   C1    1  13.300  14.983  12.376
    1  UNK   O1    2  13.309  14.917  12.146
    1  UNK   C2    3  13.380  14.987  12.246
    1  UNK   N1    4  13.868  15.406  13.060
    1  UNK   C3    5  13.526  14.937  12.262
    1  UNK   O3    6  14.049  15.357  12.937
    1  UNK   C4    7  13.593  15.022  12.376
    1  UNK   C5    8  13.515  15.037  12.511
    1  UNK   C6    9  13.366  15.072  12.482
    1  UNK   C7   10  13.742  14.994  12.402
    1  UNK   C8   11  13.808  15.117  12.467
    1  UNK   C9   12  13.737  15.171  12.595
    1  UNK  C10   13  13.579  15.160  12.587
    1  UNK  C11   14  13.770  15.326  12.620
    1  UNK  C12   15  13.691  15.378  12.743
    1  UNK  C13   16  13.580  15.316  12.788
    1  UNK  C14   17  13.516  15.194  12.724
    1  UNK  C15   18  13.923  15.346  12.641
    1  UNK  C16   19  13.963  15.483  12.701
    1  UNK  C17   20  13.893  15.514  12.836
    1  UNK  C18   21  13.738  15.507  12.812
    1  UNK  C19   22  13.934  15.655  12.886
    1  UNK  C20   23  13.870  15.774  12.811
    1  UNK  C21   24  13.717  15.766  12.806
    1  UNK  C22   25  13.680  15.631  12.740
    1  UNK  C23   26  13.941  15.415  12.948
    1  UNK  C24   27  13.790  15.083  12.712
    1  UNK  C25   28  13.514  14.907  12.598
    1  UNK  C26   29  13.653  15.778  12.945
    1  UNK  C27   30  13.726  15.416  12.499
    1  UNK  C28   31  13.598  14.963  12.127
    1  UNK  C29   32  13.532  14.784  12.286
    1  UNK  C30   33  13.662  15.882  12.721
    1  UNK  C31   34  13.912  15.342  13.184
    1  UNK  C36   35  14.002  15.438  13.264
    1  UNK   O9   36  14.041  15.381  13.388
    1  UNK  C41   37  14.119  15.474  13.463
    1  UNK  C46   38  14.158  15.422  13.603
    1  UNK   O2   39  14.288  15.363  13.600
    1  UNK  C51   40  14.362  15.392  13.719
    1  UNK  C56   41  14.490  15.305  13.726
    1  UNK  O14   42  14.608  15.378  13.759
    1  UNK  C61   43  14.609  15.431  13.891
    1  UNK  C66   44  14.718  15.540  13.902
    1  UNK   O4   45  14.849  15.484  13.889
    1  UNK  C71   46  14.951  15.579  13.916
    1  UNK  C76   47  14.995  15.573  14.064
    1  UNK   O5   48  15.086  15.465  14.084
    1  UNK  C81   49  15.219  15.504  14.125
    1  UNK  C86   50  15.290  15.578  14.011
    1  UNK   N2   51  15.429  15.616  14.035
    1  UNK   N3   52  15.523  15.558  13.960
    1  UNK   N4   53  15.625  15.637  13.958
    1  UNK  C91   54  15.483  15.721  14.107
    1  UNK  C96   55  15.603  15.744  14.044
    1  UNK C101   56  15.697  15.862  14.043
    1  UNK   O6   57  15.814  15.834  13.964
    1  UNK C104   58  15.897  15.935  13.919
    1  UNK C107   59  15.856  16.066  13.888
    1  UNK C110   60  16.031  15.899  13.893
    1  UNK C113   61  16.123  15.991  13.839
    1  UNK C116   62  16.082  16.123  13.812
    1  UNK C119   63  15.947  16.160  13.833
    1  UNK   O7   64  16.250  15.951  13.806
    1  UNK   O8   65  15.902  16.284  13.798
    1  UNK C122   66  15.926  16.322  13.663
    1  UNK C125   67  16.253  15.877  13.684
    1  UNK   H1   68  13.689  15.507  12.910
    1  UNK   H2   69  13.550  15.243  12.524
    1  UNK   H3   70  13.591  15.122  12.333
    1  UNK   H4   71  13.198  15.020  12.359
    1  UNK   H5   72  13.288  14.881  12.413
    1  UNK   H6   73  13.384  15.092  12.216
    1  UNK   H7   74  13.307  15.067  12.574
    1  UNK   H8   75  13.358  15.175  12.448
    1  UNK   H9   76  13.758  14.905  12.463
    1  UNK  H10   77  13.796  14.974  12.310
    1  UNK  H11   78  13.817  15.191  12.388
    1  UNK  H12   79  13.912  15.093  12.489
    1  UNK  H13   80  13.528  15.355  12.874
    1  UNK  H14   81  13.410  15.215  12.713
    1  UNK  H15   82  13.526  15.113  12.795
    1  UNK  H16   83  13.965  15.270  12.706
    1  UNK  H17   84  13.976  15.334  12.546
    1  UNK  H18   85  13.944  15.562  12.630
    1  UNK  H19   86  14.071  15.485  12.714
    1  UNK  H20   87  14.043  15.664  12.881
    1  UNK  H21   88  13.911  15.665  12.992
    1  UNK  H22   89  13.901  15.867  12.859
    1  UNK  H23   90  13.911  15.777  12.710
    1  UNK  H24   91  13.571  15.622  12.733
    1  UNK  H25   92  13.715  15.635  12.638
    1  UNK  H26   93  13.749  14.982  12.711
    1  UNK  H27   94  13.898  15.069  12.709
    1  UNK  H28   95  13.768  15.124  12.811
    1  UNK  H29   96  13.448  14.831  12.559
    1  UNK  H30   97  13.611  14.860  12.608
    1  UNK  H31   98  13.478  14.926  12.699
    1  UNK  H32   99  13.311  14.825  12.173
    1  UNK  H33  100  13.545  15.766  12.940
    1  UNK  H34  101  13.691  15.703  13.015
    1  UNK  H35  102  13.673  15.875  12.989
    1  UNK  H36  103  13.724  15.367  12.403
    1  UNK  H37  104  13.626  15.455  12.513
    1  UNK  H38  105  13.792  15.501  12.485
    1  UNK  H39  106  13.547  14.917  12.043
    1  UNK  H40  107  13.607  15.070  12.106
    1  UNK  H41  108  13.699  14.922  12.126
    1  UNK  H42  109  13.503  14.728  12.198
    1  UNK  H43  110  13.634  14.752  12.311
    1  UNK  H44  111  13.468  14.750  12.367
    1  UNK  H45  112  13.554  15.877  12.712
    1  UNK  H46  113  13.687  15.978  12.765
    1  UNK  H47  114  13.703  15.882  12.620
    1  UNK  H48  115  13.782  15.460  13.065
    1  UNK  H53  116  13.965  15.249  13.162
    1  UNK  H58  117  13.824  15.316  13.243
    1  UNK  H63  118  13.947  15.531  13.281
    1  UNK  H68  119  14.090  15.464  13.205
    1  UNK  H73  120  14.060  15.565  13.476
    1  UNK  H78  121  14.208  15.500  13.407
    1  UNK  H83  122  14.084  15.353  13.642
    1  UNK  H88  123  14.157  15.508  13.670
    1  UNK  H93  124  14.301  15.375  13.808
    1  UNK  H98  125  14.388  15.498  13.717
    1  UNK H103  126  14.507  15.260  13.629
    1  UNK H108  127  14.475  15.222  13.796
    1  UNK H113  128  14.625  15.352  13.964
    1  UNK H118  129  14.513  15.478  13.915
    1  UNK H123  130  14.708  15.588  13.999
    1  UNK H128  131  14.701  15.616  13.826
    1  UNK H133  132  14.919  15.680  13.891
    1  UNK H138  133  15.037  15.559  13.852
    1  UNK H143  134  14.909  15.559  14.129
    1  UNK H148  135  15.039  15.669  14.093
    1  UNK H153  136  15.275  15.414  14.150
    1  UNK H158  137  15.215  15.565  14.215
    1  UNK H163  138  15.237  15.669  13.984
    1  UNK H168  139  15.287  15.515  13.922
    1  UNK H173  140  15.425  15.779  14.178
    1  UNK H178  141  15.728  15.887  14.144
    1  UNK H183  142  15.644  15.948  14.005
    1  UNK H188  143  15.753  16.095  13.899
    1  UNK H191  144  16.064  15.798  13.911
    1  UNK H194  145  16.153  16.193  13.772
    1  UNK  C32  146  16.501  18.895  12.372
    1  UNK  O10  147  16.428  18.910  12.143
    1  UNK  C37  148  16.459  18.818  12.246
    1  UNK   N5  149  16.580  18.220  13.038
    1  UNK  C42  150  16.342  18.719  12.271
    1  UNK  O15  151  16.512  18.021  12.960
    1  UNK  C47  152  16.388  18.622  12.387
    1  UNK  C52  153  16.447  18.687  12.518
    1  UNK  C57  154  16.550  18.796  12.479
    1  UNK  C62  155  16.290  18.508  12.422
    1  UNK  C67  156  16.366  18.392  12.486
    1  UNK  C72  157  16.456  18.430  12.608
    1  UNK  C77  158  16.524  18.572  12.593
    1  UNK  C82  159  16.575  18.325  12.627
    1  UNK  C87  160  16.666  18.368  12.746
    1  UNK  C92  161  16.670  18.496  12.788
    1  UNK  C97  162  16.593  18.612  12.727
    1  UNK C102  163  16.520  18.181  12.651
    1  UNK C105  164  16.623  18.080  12.702
    1  UNK C108  165  16.691  18.124  12.834
    1  UNK C111  166  16.758  18.264  12.810
    1  UNK C114  167  16.798  18.021  12.879
    1  UNK C117  168  16.928  18.018  12.797
    1  UNK C120  169  16.995  18.156  12.786
    1  UNK C123  170  16.891  18.255  12.730
    1  UNK C126  171  16.585  18.120  12.949
    1  UNK C128  172  16.360  18.429  12.732
    1  UNK C130  173  16.340  18.755  12.608
    1  UNK C132  174  17.049  18.204  12.921
    1  UNK C134  175  16.668  18.320  12.501
    1  UNK C136  176  16.323  18.637  12.141
    1  UNK C138  177  16.209  18.791  12.299
    1  UNK C140  178  17.115  18.148  12.689
    1  UNK  C33  179  16.496  18.218  13.158
    1  UNK  C38  180  16.552  18.121  13.264
    1  UNK  O11  181  16.449  18.086  13.356
    1  UNK  C43  182  16.488  17.980  13.442
    1  UNK  C48  183  16.379  17.951  13.546
    1  UNK  O19  184  16.377  17.812  13.574
    1  UNK  C53  185  16.305  17.779  13.692
    1  UNK  C58  186  16.337  17.636  13.735
    1  UNK  O16  187  16.289  17.537  13.642
    1  UNK  C63  188  16.332  17.406  13.677
    1  UNK  C68  189  16.231  17.340  13.773
    1  UNK  O21  190  16.156  17.235  13.709
    1  UNK  C73  191  16.226  17.109  13.718
    1  UNK  C78  192  16.244  17.041  13.580
    1  UNK  O23  193  16.124  16.978  13.533
    1  UNK  C83  194  16.102  16.846  13.585
    1  UNK  C88  195  16.190  16.731  13.532
    1  UNK   N7  196  16.141  16.607  13.589
    1  UNK   N9  197  16.186  16.568  13.710
    1  UNK  N11  198  16.117  16.465  13.746
    1  UNK  C93  199  16.042  16.521  13.543
    1  UNK  C98  200  16.025  16.433  13.647
    1  UNK  H49  201  16.787  18.304  12.907
    1  UNK  H54  202  16.608  18.556  12.527
    1  UNK  H59  203  16.473  18.571  12.342
    1  UNK  H64  204  16.583  18.963  12.348
    1  UNK  H69  205  16.421  18.957  12.410
    1  UNK  H74  206  16.545  18.761  12.214
    1  UNK  H79  207  16.580  18.853  12.568
    1  UNK  H84  208  16.642  18.751  12.442
    1  UNK  H89  209  16.209  18.541  12.487
    1  UNK  H94  210  16.240  18.469  12.334
    1  UNK  H99  211  16.421  18.343  12.406
    1  UNK H104  212  16.294  18.315  12.514
    1  UNK H109  213  16.735  18.523  12.871
    1  UNK H114  214  16.663  18.693  12.711
    1  UNK H119  215  16.521  18.646  12.801
    1  UNK H124  216  16.438  18.182  12.722
    1  UNK H129  217  16.476  18.143  12.558
    1  UNK H134  218  16.699  18.061  12.626
    1  UNK H139  219  16.574  17.983  12.715
    1  UNK H144  220  16.755  17.921  12.881
    1  UNK H149  221  16.824  18.045  12.982
    1  UNK H154  222  16.997  17.946  12.841
    1  UNK H159  223  16.905  17.979  12.697
    1  UNK H164  224  16.935  18.355  12.722
    1  UNK H169  225  16.870  18.224  12.628
    1  UNK H174  226  16.292  18.513  12.731
    1  UNK H179  227  16.297  18.341  12.735
    1  UNK H184  228  16.413  18.432  12.827
    1  UNK H189  229  16.303  18.848  12.567
    1  UNK H192  230  16.252  18.694  12.628
    1  UNK H195  231  16.381  18.783  12.705
    1  UNK H197  232  16.351  18.957  12.172
    1  UNK H199  233  17.093  18.304  12.913
    1  UNK H201  234  16.972  18.210  12.998
    1  UNK H203  235  17.127  18.138  12.958
    1  UNK H205  236  16.622  18.353  12.408
    1  UNK H207  237  16.755  18.384  12.512
    1  UNK H209  238  16.704  18.220  12.479
    1  UNK H211  239  16.306  18.701  12.054
    1  UNK H213  240  16.409  18.574  12.118
    1  UNK H215  241  16.236  18.571  12.146
    1  UNK H217  242  16.170  18.841  12.210
    1  UNK H219  243  16.131  18.720  12.331
    1  UNK H221  244  16.215  18.867  12.377
    1  UNK H223  245  17.161  18.245  12.675
    1  UNK H225  246  17.192  18.080  12.728
    1  UNK H227  247  17.086  18.111  12.591
    1  UNK  H50  248  16.643  18.298  13.027
    1  UNK  H55  249  16.395  18.188  13.130
    1  UNK  H60  250  16.489  18.319  13.199
    1  UNK  H65  251  16.636  18.167  13.317
    1  UNK  H70  252  16.590  18.031  13.217
    1  UNK  H75  253  16.583  18.002  13.492
    1  UNK  H80  254  16.503  17.892  13.380
    1  UNK  H85  255  16.281  17.980  13.507
    1  UNK  H90  256  16.397  18.012  13.635
    1  UNK  H95  257  16.198  17.792  13.675
    1  UNK H100  258  16.334  17.846  13.773
    1  UNK H105  259  16.295  17.618  13.834
    1  UNK H110  260  16.445  17.627  13.747
    1  UNK H115  261  16.432  17.406  13.720
    1  UNK H120  262  16.339  17.348  13.586
    1  UNK H125  263  16.161  17.416  13.808
    1  UNK H130  264  16.280  17.305  13.864
    1  UNK H135  265  16.174  17.044  13.788
    1  UNK H140  266  16.327  17.121  13.759
    1  UNK H145  267  16.326  16.970  13.582
    1  UNK H150  268  16.274  17.117  13.507
    1  UNK H155  269  16.001  16.819  13.557
    1  UNK H160  270  16.103  16.848  13.694
    1  UNK H165  271  16.294  16.744  13.561
    1  UNK H170  272  16.186  16.724  13.424
    1  UNK H175  273  15.990  16.531  13.449
    1  UNK H180  274  15.831  16.358  13.625
    1  UNK H185  275  15.953  16.237  13.600
    1  UNK  C34  276  18.269  14.148  12.378
    1  UNK  O12  277  18.321  14.214  12.152
    1  UNK  C39  278  18.226  14.229  12.256
    1  UNK   N6  279  17.644  14.378  13.056
    1  UNK  C44  280  18.198  14.379  12.288
    1  UNK  O17  281  17.529  14.553  12.976
    1  UNK  C49  282  18.091  14.382  12.403
    1  UNK  C54  283  18.116  14.292  12.530
    1  UNK  C59  284  18.159  14.150  12.484
    1  UNK  C64  285  18.042  14.523  12.445
    1  UNK  C69  286  17.902  14.513  12.508
    1  UNK  C74  287  17.889  14.409  12.624
    1  UNK  C79  288  17.976  14.280  12.603
    1  UNK  C84  289  17.737  14.358  12.639
    1  UNK  C89  290  17.728  14.251  12.751
    1  UNK  C94  291  17.836  14.180  12.791
    1  UNK  C99  292  17.975  14.192  12.731
    1  UNK C103  293  17.642  14.478  12.668
    1  UNK C106  294  17.502  14.438  12.720
    1  UNK C109  295  17.508  14.350  12.847
    1  UNK C112  296  17.591  14.221  12.813
    1  UNK C115  297  17.365  14.309  12.892
    1  UNK C118  298  17.292  14.209  12.800
    1  UNK C121  299  17.374  14.080  12.775
    1  UNK C124  300  17.513  14.120  12.724
    1  UNK C127  301  17.564  14.435  12.965
    1  UNK C129  302  17.935  14.484  12.753
    1  UNK C131  303  18.227  14.346  12.625
    1  UNK C133  304  17.385  13.995  12.903
    1  UNK C135  305  17.687  14.290  12.507
    1  UNK C137  306  18.138  14.443  12.160
    1  UNK C139  307  18.327  14.456  12.321
    1  UNK C141  308  17.302  13.994  12.669
    1  UNK  C35  309  17.701  14.448  13.172
    1  UNK  C40  310  17.597  14.482  13.279
    1  UNK  O13  311  17.656  14.562  13.381
    1  UNK  C45  312  17.563  14.616  13.474
    1  UNK  C50  313  17.521  14.758  13.430
    1  UNK  O20  314  17.411  14.811  13.502
    1  UNK  C55  315  17.442  14.848  13.637
    1  UNK  C60  316  17.322  14.917  13.703
    1  UNK  O18  317  17.286  15.035  13.630
    1  UNK  C65  318  17.183  15.109  13.692
    1  UNK  C70  319  17.144  15.226  13.599
    1  UNK  O22  320  17.078  15.336  13.664
    1  UNK  C75  321  16.954  15.304  13.728
    1  UNK  C80  322  16.839  15.270  13.630
    1  UNK  O24  323  16.790  15.385  13.560
    1  UNK  C85  324  16.686  15.454  13.631
    1  UNK  C90  325  16.601  15.543  13.538
    1  UNK   N8  326  16.519  15.640  13.609
    1  UNK  N10  327  16.557  15.688  13.730
    1  UNK  N12  328  16.472  15.778  13.766
    1  UNK  C95  329  16.372  15.787  13.670
    1  UNK C100  330  16.403  15.702  13.567
    1  UNK  H51  331  17.610  14.168  12.906
    1  UNK  H56  332  17.921  14.219  12.532
    1  UNK  H61  333  18.004  14.337  12.355
    1  UNK  H66  334  18.288  14.044  12.349
    1  UNK  H71  335  18.363  14.184  12.419
    1  UNK  H76  336  18.132  14.186  12.220
    1  UNK  H81  337  18.192  14.091  12.570
    1  UNK  H86  338  18.074  14.095  12.444
    1  UNK  H91  339  18.111  14.572  12.513
    1  UNK  H96  340  18.034  14.590  12.360
    1  UNK H101  341  17.833  14.495  12.427
    1  UNK H106  342  17.873  14.612  12.543
    1  UNK H111  343  17.826  14.106  12.869
    1  UNK H116  344  18.011  14.092  12.710
    1  UNK H121  345  18.040  14.233  12.809
    1  UNK H126  346  17.684  14.546  12.742
    1  UNK H131  347  17.630  14.539  12.579
    1  UNK H136  348  17.447  14.388  12.641
    1  UNK H141  349  17.444  14.528  12.739
    1  UNK H146  350  17.303  14.398  12.903
    1  UNK H151  351  17.372  14.264  12.991
    1  UNK H156  352  17.195  14.184  12.843
    1  UNK H161  353  17.270  14.258  12.705
    1  UNK H166  354  17.574  14.031  12.709
    1  UNK H171  355  17.498  14.162  12.625
    1  UNK H176  356  18.043  14.500  12.755
    1  UNK H181  357  17.892  14.584  12.762
    1  UNK H186  358  17.910  14.432  12.845
    1  UNK H190  359  18.327  14.333  12.583
    1  UNK H193  360  18.219  14.451  12.650
    1  UNK H196  361  18.229  14.291  12.719
    1  UNK H198  362  18.400  14.258  12.183
    1  UNK H200  363  17.445  13.905  12.885
    1  UNK H202  364  17.432  14.049  12.985
    1  UNK H204  365  17.287  13.963  12.938
    1  UNK H206  366  17.742  14.316  12.417
    1  UNK H208  367  17.696  14.181  12.513
    1  UNK H210  368  17.583  14.312  12.485
    1  UNK H212  369  18.203  14.430  12.074
    1  UNK H214  370  18.041  14.401  12.135
    1  UNK H216  371  18.125  14.551  12.170
    1  UNK H218  372  18.391  14.468  12.233
    1  UNK H220  373  18.305  14.557  12.357
    1  UNK H222  374  18.389  14.409  12.397
    1  UNK H224  375  17.361  13.906  12.643
    1  UNK H226  376  17.205  13.959  12.706
    1  UNK H228  377  17.284  14.049  12.578
    1  UNK  H52  378  17.666  14.280  13.048
    1  UNK  H57  379  17.750  14.539  13.137
    1  UNK  H62  380  17.779  14.386  13.216
    1  UNK  H67  381  17.558  14.391  13.325
    1  UNK  H72  382  17.512  14.535  13.235
    1  UNK  H77  383  17.611  14.621  13.572
    1  UNK  H82  384  17.476  14.551  13.485
    1  UNK  H87  385  17.491  14.755  13.325
    1  UNK  H92  386  17.607  14.826  13.434
    1  UNK  H97  387  17.528  14.914  13.639
    1  UNK H102  388  17.468  14.759  13.695
    1  UNK H107  389  17.349  14.944  13.806
    1  UNK H112  390  17.237  14.849  13.710
    1  UNK H117  391  17.220  15.147  13.788
    1  UNK H122  392  17.097  15.046  13.713
    1  UNK H127  393  17.087  15.190  13.514
    1  UNK H132  394  17.236  15.268  13.557
    1  UNK H137  395  16.928  15.392  13.786
    1  UNK H142  396  16.966  15.223  13.800
    1  UNK H147  397  16.871  15.196  13.557
    1  UNK H152  398  16.758  15.221  13.685
    1  UNK H157  399  16.737  15.514  13.705
    1  UNK H162  400  16.619  15.386  13.683
    1  UNK H167  401  16.536  15.481  13.476
    1  UNK H172  402  16.665  15.599  13.470
    1  UNK H177  403  16.352  15.680  13.474
    1  UNK H182  404  16.249  15.948  13.601
    1  UNK H187  405  16.163  15.817  13.676
  104.03200   101.15800    43.43600
