[ moleculetype ]
;name            nrexcl
 UNK              3

[ atoms ]
;   nr  type  resi  res  atom  cgnr     charge      mass       ; qtot   bond_type
     1   c3     1   UNK    C1    1    -0.025929     12.01000 ; qtot -0.026
     2   oh     1   UNK    O1    2    -0.392562     16.00000 ; qtot -0.418
     3   c3     1   UNK    C2    3     0.059375     12.01000 ; qtot -0.359
     4    n     1   UNK    N1    4    -0.312618     14.01000 ; qtot -0.672
     5   c3     1   UNK    C3    5    -0.006011     12.01000 ; qtot -0.678
     6    o     1   UNK    O3    6    -0.277065     16.00000 ; qtot -0.955
     7   c3     1   UNK    C4    7    -0.028080     12.01000 ; qtot -0.983
     8   c3     1   UNK    C5    8    -0.025376     12.01000 ; qtot -1.008
     9   c3     1   UNK    C6    9    -0.044798     12.01000 ; qtot -1.053
    10   c3     1   UNK    C7   10    -0.048748     12.01000 ; qtot -1.102
    11   c3     1   UNK    C8   11    -0.046426     12.01000 ; qtot -1.148
    12   c3     1   UNK    C9   12    -0.019794     12.01000 ; qtot -1.168
    13   c3     1   UNK   C10   13    -0.026010     12.01000 ; qtot -1.194
    14   c3     1   UNK   C11   14    -0.005618     12.01000 ; qtot -1.200
    15   c2     1   UNK   C12   15    -0.063524     12.01000 ; qtot -1.263
    16   c2     1   UNK   C13   16    -0.084126     12.01000 ; qtot -1.347
    17   c3     1   UNK   C14   17    -0.030837     12.01000 ; qtot -1.378
    18   c3     1   UNK   C15   18    -0.042519     12.01000 ; qtot -1.421
    19   c3     1   UNK   C16   19    -0.037522     12.01000 ; qtot -1.458
    20   c3     1   UNK   C17   20     0.053653     12.01000 ; qtot -1.405
    21   c3     1   UNK   C18   21    -0.004977     12.01000 ; qtot -1.410
    22   c3     1   UNK   C19   22    -0.037860     12.01000 ; qtot -1.447
    23   c3     1   UNK   C20   23    -0.047062     12.01000 ; qtot -1.494
    24   c3     1   UNK   C21   24    -0.034782     12.01000 ; qtot -1.529
    25   c3     1   UNK   C22   25    -0.040466     12.01000 ; qtot -1.570
    26    c     1   UNK   C23   26     0.218543     12.01000 ; qtot -1.351
    27   c3     1   UNK   C24   27    -0.058513     12.01000 ; qtot -1.410
    28   c3     1   UNK   C25   28    -0.059057     12.01000 ; qtot -1.469
    29   c3     1   UNK   C26   29    -0.059887     12.01000 ; qtot -1.529
    30   c3     1   UNK   C27   30    -0.055324     12.01000 ; qtot -1.584
    31   c3     1   UNK   C28   31    -0.057146     12.01000 ; qtot -1.641
    32   c3     1   UNK   C29   32    -0.057146     12.01000 ; qtot -1.698
    33   c3     1   UNK   C30   33    -0.059887     12.01000 ; qtot -1.758
    34   c3     1   UNK   C39   34     0.034496     12.01000 ; qtot -1.724
    35    n     1   UNK    N2   35    -0.312618     14.01000 ; qtot -2.036
    36   c3     1   UNK   C43   36     0.062212     12.01000 ; qtot -1.974
    37   os     1   UNK   O13   37    -0.377436     16.00000 ; qtot -2.351
    38   c3     1   UNK   C46   38     0.070077     12.01000 ; qtot -2.281
    39   c3     1   UNK   C49   39     0.070114     12.01000 ; qtot -2.211
    40   os     1   UNK    O2   40    -0.376668     16.00000 ; qtot -2.588
    41   c3     1   UNK   C52   41     0.070114     12.01000 ; qtot -2.518
    42   c3     1   UNK   C55   42     0.070114     12.01000 ; qtot -2.448
    43   os     1   UNK   O16   43    -0.376668     16.00000 ; qtot -2.824
    44   c3     1   UNK   C58   44     0.070114     12.01000 ; qtot -2.754
    45   c3     1   UNK   C61   45     0.070079     12.01000 ; qtot -2.684
    46   os     1   UNK    O4   46    -0.377345     16.00000 ; qtot -3.062
    47   c3     1   UNK   C64   47     0.064459     12.01000 ; qtot -2.997
    48   c3     1   UNK   C67   48     0.059059     12.01000 ; qtot -2.938
    49   na     1   UNK    N3   49    -0.210020     14.01000 ; qtot -3.148
    50   nc     1   UNK    N4   50    -0.076040     14.01000 ; qtot -3.224
    51   nd     1   UNK    N5   51    -0.136209     14.01000 ; qtot -3.360
    52   cc     1   UNK   C70   52     0.041051     12.01000 ; qtot -3.319
    53   cd     1   UNK   C73   53     0.094309     12.01000 ; qtot -3.225
    54   c3     1   UNK   C76   54     0.044816     12.01000 ; qtot -3.180
    55   c3     1   UNK   C79   55     0.044816     12.01000 ; qtot -3.135
    56   cc     1   UNK   C82   56     0.094309     12.01000 ; qtot -3.041
    57   cd     1   UNK   C85   57     0.041051     12.01000 ; qtot -3.000
    58   nc     1   UNK    N6   58    -0.136209     14.01000 ; qtot -3.136
    59   nd     1   UNK    N7   59    -0.076040     14.01000 ; qtot -3.212
    60   na     1   UNK    N8   60    -0.210020     14.01000 ; qtot -3.422
    61   c3     1   UNK   C88   61     0.059059     12.01000 ; qtot -3.363
    62   c3     1   UNK   C91   62     0.064459     12.01000 ; qtot -3.299
    63   os     1   UNK    O5   63    -0.377345     16.00000 ; qtot -3.676
    64   c3     1   UNK   C94   64     0.070079     12.01000 ; qtot -3.606
    65   c3     1   UNK   C97   65     0.070114     12.01000 ; qtot -3.536
    66   os     1   UNK    O6   66    -0.376668     16.00000 ; qtot -3.912
    67   c3     1   UNK  C100   67     0.070114     12.01000 ; qtot -3.842
    68   c3     1   UNK  C103   68     0.070114     12.01000 ; qtot -3.772
    69   os     1   UNK    O7   69    -0.376668     16.00000 ; qtot -4.149
    70   c3     1   UNK  C106   70     0.070114     12.01000 ; qtot -4.079
    71   c3     1   UNK  C109   71     0.070077     12.01000 ; qtot -4.009
    72   os     1   UNK    O8   72    -0.377436     16.00000 ; qtot -4.386
    73   c3     1   UNK  C112   73     0.062212     12.01000 ; qtot -4.324
    74   n3     1   UNK    N9   74    -0.285503     14.01000 ; qtot -4.609
    75   c3     1   UNK  C115   75     0.044816     12.01000 ; qtot -4.565
    76   cc     1   UNK  C118   76     0.094309     12.01000 ; qtot -4.470
    77   cd     1   UNK  C121   77     0.041051     12.01000 ; qtot -4.429
    78   nc     1   UNK   N10   78    -0.136209     14.01000 ; qtot -4.565
    79   nd     1   UNK   N11   79    -0.076040     14.01000 ; qtot -4.642
    80   na     1   UNK   N12   80    -0.210020     14.01000 ; qtot -4.852
    81   c3     1   UNK  C124   81     0.059059     12.01000 ; qtot -4.792
    82   c3     1   UNK  C127   82     0.064459     12.01000 ; qtot -4.728
    83   os     1   UNK    O9   83    -0.377345     16.00000 ; qtot -5.105
    84   c3     1   UNK   C31   84     0.070079     12.01000 ; qtot -5.035
    85   c3     1   UNK   C32   85     0.070114     12.01000 ; qtot -4.965
    86   os     1   UNK   O10   86    -0.376668     16.00000 ; qtot -5.342
    87   c3     1   UNK   C33   87     0.070114     12.01000 ; qtot -5.272
    88   c3     1   UNK   C34   88     0.070114     12.01000 ; qtot -5.202
    89   os     1   UNK   O11   89    -0.376668     16.00000 ; qtot -5.578
    90   c3     1   UNK   C35   90     0.070114     12.01000 ; qtot -5.508
    91   c3     1   UNK   C36   91     0.070077     12.01000 ; qtot -5.438
    92   os     1   UNK   O12   92    -0.377436     16.00000 ; qtot -5.816
    93   c3     1   UNK   C37   93     0.062212     12.01000 ; qtot -5.753
    94   c3     1   UNK   C38   94     0.034496     12.01000 ; qtot -5.719
    95   hc     1   UNK    H1   95     0.036011      1.00800 ; qtot -5.683
    96   hc     1   UNK    H2   96     0.031750      1.00800 ; qtot -5.651
    97   hc     1   UNK    H3   97     0.031487      1.00800 ; qtot -5.620
    98   hc     1   UNK    H4   98     0.029339      1.00800 ; qtot -5.590
    99   hc     1   UNK    H5   99     0.029339      1.00800 ; qtot -5.561
   100   h1     1   UNK    H6  100     0.060617      1.00800 ; qtot -5.500
   101   hc     1   UNK    H7  101     0.027329      1.00800 ; qtot -5.473
   102   hc     1   UNK    H8  102     0.027329      1.00800 ; qtot -5.446
   103   hc     1   UNK    H9  103     0.027000      1.00800 ; qtot -5.419
   104   hc     1   UNK   H10  104     0.027000      1.00800 ; qtot -5.392
   105   hc     1   UNK   H11  105     0.027265      1.00800 ; qtot -5.364
   106   hc     1   UNK   H12  106     0.027265      1.00800 ; qtot -5.337
   107   ha     1   UNK   H13  107     0.057578      1.00800 ; qtot -5.280
   108   hc     1   UNK   H14  108     0.031301      1.00800 ; qtot -5.248
   109   hc     1   UNK   H15  109     0.031301      1.00800 ; qtot -5.217
   110   hc     1   UNK   H16  110     0.027597      1.00800 ; qtot -5.189
   111   hc     1   UNK   H17  111     0.027597      1.00800 ; qtot -5.162
   112   hc     1   UNK   H18  112     0.027789      1.00800 ; qtot -5.134
   113   hc     1   UNK   H19  113     0.027789      1.00800 ; qtot -5.106
   114   hc     1   UNK   H20  114     0.027777      1.00800 ; qtot -5.078
   115   hc     1   UNK   H21  115     0.027777      1.00800 ; qtot -5.051
   116   hc     1   UNK   H22  116     0.027237      1.00800 ; qtot -5.023
   117   hc     1   UNK   H23  117     0.027237      1.00800 ; qtot -4.996
   118   hc     1   UNK   H24  118     0.027849      1.00800 ; qtot -4.968
   119   hc     1   UNK   H25  119     0.027849      1.00800 ; qtot -4.940
   120   hc     1   UNK   H26  120     0.023644      1.00800 ; qtot -4.917
   121   hc     1   UNK   H27  121     0.023644      1.00800 ; qtot -4.893
   122   hc     1   UNK   H28  122     0.023644      1.00800 ; qtot -4.869
   123   hc     1   UNK   H29  123     0.023623      1.00800 ; qtot -4.846
   124   hc     1   UNK   H30  124     0.023623      1.00800 ; qtot -4.822
   125   hc     1   UNK   H31  125     0.023623      1.00800 ; qtot -4.799
   126   ho     1   UNK   H32  126     0.210474      1.00800 ; qtot -4.588
   127   hc     1   UNK   H33  127     0.023592      1.00800 ; qtot -4.565
   128   hc     1   UNK   H34  128     0.023592      1.00800 ; qtot -4.541
   129   hc     1   UNK   H35  129     0.023592      1.00800 ; qtot -4.517
   130   hc     1   UNK   H36  130     0.023951      1.00800 ; qtot -4.493
   131   hc     1   UNK   H37  131     0.023951      1.00800 ; qtot -4.469
   132   hc     1   UNK   H38  132     0.023951      1.00800 ; qtot -4.446
   133   hc     1   UNK   H39  133     0.023698      1.00800 ; qtot -4.422
   134   hc     1   UNK   H40  134     0.023698      1.00800 ; qtot -4.398
   135   hc     1   UNK   H41  135     0.023698      1.00800 ; qtot -4.374
   136   hc     1   UNK   H42  136     0.023698      1.00800 ; qtot -4.351
   137   hc     1   UNK   H43  137     0.023698      1.00800 ; qtot -4.327
   138   hc     1   UNK   H44  138     0.023698      1.00800 ; qtot -4.303
   139   hc     1   UNK   H45  139     0.023592      1.00800 ; qtot -4.280
   140   hc     1   UNK   H46  140     0.023592      1.00800 ; qtot -4.256
   141   hc     1   UNK   H47  141     0.023592      1.00800 ; qtot -4.233
   142   hn     1   UNK   H71  142     0.149439      1.00800 ; qtot -4.083
   143   h1     1   UNK   H76  143     0.049086      1.00800 ; qtot -4.034
   144   h1     1   UNK   H79  144     0.049086      1.00800 ; qtot -3.985
   145   h1     1   UNK   H82  145     0.058323      1.00800 ; qtot -3.927
   146   h1     1   UNK   H85  146     0.058323      1.00800 ; qtot -3.868
   147   h1     1   UNK   H88  147     0.059109      1.00800 ; qtot -3.809
   148   h1     1   UNK   H91  148     0.059109      1.00800 ; qtot -3.750
   149   h1     1   UNK   H94  149     0.059110      1.00800 ; qtot -3.691
   150   h1     1   UNK   H97  150     0.059110      1.00800 ; qtot -3.632
   151   h1     1   UNK  H100  151     0.059110      1.00800 ; qtot -3.573
   152   h1     1   UNK  H103  152     0.059110      1.00800 ; qtot -3.514
   153   h1     1   UNK  H106  153     0.059110      1.00800 ; qtot -3.455
   154   h1     1   UNK  H109  154     0.059110      1.00800 ; qtot -3.395
   155   h1     1   UNK  H112  155     0.059110      1.00800 ; qtot -3.336
   156   h1     1   UNK  H115  156     0.059110      1.00800 ; qtot -3.277
   157   h1     1   UNK  H118  157     0.059109      1.00800 ; qtot -3.218
   158   h1     1   UNK  H121  158     0.059109      1.00800 ; qtot -3.159
   159   h1     1   UNK  H124  159     0.058413      1.00800 ; qtot -3.101
   160   h1     1   UNK  H127  160     0.058413      1.00800 ; qtot -3.042
   161   h1     1   UNK  H130  161     0.051515      1.00800 ; qtot -2.991
   162   h1     1   UNK  H133  162     0.051515      1.00800 ; qtot -2.939
   163   h4     1   UNK  H136  163     0.083083      1.00800 ; qtot -2.856
   164   h1     1   UNK  H139  164     0.049925      1.00800 ; qtot -2.806
   165   h1     1   UNK  H142  165     0.049925      1.00800 ; qtot -2.756
   166   h4     1   UNK  H145  166     0.083083      1.00800 ; qtot -2.673
   167   h1     1   UNK  H148  167     0.051515      1.00800 ; qtot -2.622
   168   h1     1   UNK  H151  168     0.051515      1.00800 ; qtot -2.570
   169   h1     1   UNK  H154  169     0.058413      1.00800 ; qtot -2.512
   170   h1     1   UNK  H157  170     0.058413      1.00800 ; qtot -2.453
   171   h1     1   UNK  H160  171     0.059109      1.00800 ; qtot -2.394
   172   h1     1   UNK  H163  172     0.059109      1.00800 ; qtot -2.335
   173   h1     1   UNK  H166  173     0.059110      1.00800 ; qtot -2.276
   174   h1     1   UNK  H169  174     0.059110      1.00800 ; qtot -2.217
   175   h1     1   UNK  H172  175     0.059110      1.00800 ; qtot -2.158
   176   h1     1   UNK  H175  176     0.059110      1.00800 ; qtot -2.099
   177   h1     1   UNK  H178  177     0.059110      1.00800 ; qtot -2.039
   178   h1     1   UNK  H181  178     0.059110      1.00800 ; qtot -1.980
   179   h1     1   UNK  H184  179     0.059110      1.00800 ; qtot -1.921
   180   h1     1   UNK  H187  180     0.059110      1.00800 ; qtot -1.862
   181   h1     1   UNK  H190  181     0.059109      1.00800 ; qtot -1.803
   182   h1     1   UNK  H193  182     0.059109      1.00800 ; qtot -1.744
   183   h1     1   UNK  H196  183     0.058323      1.00800 ; qtot -1.686
   184   h1     1   UNK  H199  184     0.058323      1.00800 ; qtot -1.627
   185   h1     1   UNK  H202  185     0.049086      1.00800 ; qtot -1.578
   186   h1     1   UNK  H205  186     0.049086      1.00800 ; qtot -1.529
   187   h1     1   UNK  H208  187     0.049925      1.00800 ; qtot -1.479
   188   h1     1   UNK  H211  188     0.049925      1.00800 ; qtot -1.429
   189   h1     1   UNK   H48  189     0.049925      1.00800 ; qtot -1.379
   190   h1     1   UNK   H49  190     0.049925      1.00800 ; qtot -1.329
   191   h4     1   UNK   H50  191     0.083083      1.00800 ; qtot -1.246
   192   h1     1   UNK   H51  192     0.051515      1.00800 ; qtot -1.195
   193   h1     1   UNK   H52  193     0.051515      1.00800 ; qtot -1.143
   194   h1     1   UNK   H53  194     0.058413      1.00800 ; qtot -1.085
   195   h1     1   UNK   H54  195     0.058413      1.00800 ; qtot -1.026
   196   h1     1   UNK   H55  196     0.059109      1.00800 ; qtot -0.967
   197   h1     1   UNK   H56  197     0.059109      1.00800 ; qtot -0.908
   198   h1     1   UNK   H57  198     0.059110      1.00800 ; qtot -0.849
   199   h1     1   UNK   H58  199     0.059110      1.00800 ; qtot -0.790
   200   h1     1   UNK   H59  200     0.059110      1.00800 ; qtot -0.731
   201   h1     1   UNK   H60  201     0.059110      1.00800 ; qtot -0.672
   202   h1     1   UNK   H61  202     0.059110      1.00800 ; qtot -0.613
   203   h1     1   UNK   H62  203     0.059110      1.00800 ; qtot -0.554
   204   h1     1   UNK   H63  204     0.059110      1.00800 ; qtot -0.494
   205   h1     1   UNK   H64  205     0.059110      1.00800 ; qtot -0.435
   206   h1     1   UNK   H65  206     0.059109      1.00800 ; qtot -0.376
   207   h1     1   UNK   H66  207     0.059109      1.00800 ; qtot -0.317
   208   h1     1   UNK   H67  208     0.058323      1.00800 ; qtot -0.259
   209   h1     1   UNK   H68  209     0.058323      1.00800 ; qtot -0.201
   210   h1     1   UNK   H69  210     0.049086      1.00800 ; qtot -0.151
   211   h1     1   UNK   H70  211     0.049086      1.00800 ; qtot -0.102
   212   c3     1   UNK   C40  212    -0.025929     12.01000 ; qtot -0.128
   213   oh     1   UNK   O14  213    -0.392562     16.00000 ; qtot -0.521
   214   c3     1   UNK   C44  214     0.059375     12.01000 ; qtot -0.461
   215   c3     1   UNK   C47  215    -0.006011     12.01000 ; qtot -0.467
   216    o     1   UNK   O17  216    -0.277065     16.00000 ; qtot -0.745
   217   c3     1   UNK   C50  217    -0.028080     12.01000 ; qtot -0.773
   218   c3     1   UNK   C53  218    -0.025376     12.01000 ; qtot -0.798
   219   c3     1   UNK   C56  219    -0.044798     12.01000 ; qtot -0.843
   220   c3     1   UNK   C59  220    -0.048748     12.01000 ; qtot -0.892
   221   c3     1   UNK   C62  221    -0.046426     12.01000 ; qtot -0.938
   222   c3     1   UNK   C65  222    -0.019794     12.01000 ; qtot -0.958
   223   c3     1   UNK   C68  223    -0.026010     12.01000 ; qtot -0.984
   224   c3     1   UNK   C71  224    -0.005618     12.01000 ; qtot -0.989
   225   c2     1   UNK   C74  225    -0.063524     12.01000 ; qtot -1.053
   226   c2     1   UNK   C77  226    -0.084126     12.01000 ; qtot -1.137
   227   c3     1   UNK   C80  227    -0.030837     12.01000 ; qtot -1.168
   228   c3     1   UNK   C83  228    -0.042519     12.01000 ; qtot -1.210
   229   c3     1   UNK   C86  229    -0.037522     12.01000 ; qtot -1.248
   230   c3     1   UNK   C89  230     0.053653     12.01000 ; qtot -1.194
   231   c3     1   UNK   C92  231    -0.004977     12.01000 ; qtot -1.199
   232   c3     1   UNK   C95  232    -0.037860     12.01000 ; qtot -1.237
   233   c3     1   UNK   C98  233    -0.047062     12.01000 ; qtot -1.284
   234   c3     1   UNK  C101  234    -0.034782     12.01000 ; qtot -1.319
   235   c3     1   UNK  C104  235    -0.040466     12.01000 ; qtot -1.359
   236    c     1   UNK  C107  236     0.218543     12.01000 ; qtot -1.141
   237   c3     1   UNK  C110  237    -0.058513     12.01000 ; qtot -1.199
   238   c3     1   UNK  C113  238    -0.059057     12.01000 ; qtot -1.258
   239   c3     1   UNK  C116  239    -0.059887     12.01000 ; qtot -1.318
   240   c3     1   UNK  C119  240    -0.055324     12.01000 ; qtot -1.374
   241   c3     1   UNK  C122  241    -0.057146     12.01000 ; qtot -1.431
   242   c3     1   UNK  C125  242    -0.057146     12.01000 ; qtot -1.488
   243   c3     1   UNK  C128  243    -0.059887     12.01000 ; qtot -1.548
   244   hc     1   UNK   H72  244     0.036011      1.00800 ; qtot -1.512
   245   hc     1   UNK   H77  245     0.031750      1.00800 ; qtot -1.480
   246   hc     1   UNK   H80  246     0.031487      1.00800 ; qtot -1.449
   247   hc     1   UNK   H83  247     0.029339      1.00800 ; qtot -1.419
   248   hc     1   UNK   H86  248     0.029339      1.00800 ; qtot -1.390
   249   h1     1   UNK   H89  249     0.060617      1.00800 ; qtot -1.329
   250   hc     1   UNK   H92  250     0.027329      1.00800 ; qtot -1.302
   251   hc     1   UNK   H95  251     0.027329      1.00800 ; qtot -1.275
   252   hc     1   UNK   H98  252     0.027000      1.00800 ; qtot -1.248
   253   hc     1   UNK  H101  253     0.027000      1.00800 ; qtot -1.221
   254   hc     1   UNK  H104  254     0.027265      1.00800 ; qtot -1.193
   255   hc     1   UNK  H107  255     0.027265      1.00800 ; qtot -1.166
   256   ha     1   UNK  H110  256     0.057578      1.00800 ; qtot -1.109
   257   hc     1   UNK  H113  257     0.031301      1.00800 ; qtot -1.077
   258   hc     1   UNK  H116  258     0.031301      1.00800 ; qtot -1.046
   259   hc     1   UNK  H119  259     0.027597      1.00800 ; qtot -1.018
   260   hc     1   UNK  H122  260     0.027597      1.00800 ; qtot -0.991
   261   hc     1   UNK  H125  261     0.027789      1.00800 ; qtot -0.963
   262   hc     1   UNK  H128  262     0.027789      1.00800 ; qtot -0.935
   263   hc     1   UNK  H131  263     0.027777      1.00800 ; qtot -0.907
   264   hc     1   UNK  H134  264     0.027777      1.00800 ; qtot -0.880
   265   hc     1   UNK  H137  265     0.027237      1.00800 ; qtot -0.852
   266   hc     1   UNK  H140  266     0.027237      1.00800 ; qtot -0.825
   267   hc     1   UNK  H143  267     0.027849      1.00800 ; qtot -0.797
   268   hc     1   UNK  H146  268     0.027849      1.00800 ; qtot -0.769
   269   hc     1   UNK  H149  269     0.023644      1.00800 ; qtot -0.746
   270   hc     1   UNK  H152  270     0.023644      1.00800 ; qtot -0.722
   271   hc     1   UNK  H155  271     0.023644      1.00800 ; qtot -0.698
   272   hc     1   UNK  H158  272     0.023623      1.00800 ; qtot -0.675
   273   hc     1   UNK  H161  273     0.023623      1.00800 ; qtot -0.651
   274   hc     1   UNK  H164  274     0.023623      1.00800 ; qtot -0.628
   275   ho     1   UNK  H167  275     0.210474      1.00800 ; qtot -0.417
   276   hc     1   UNK  H170  276     0.023592      1.00800 ; qtot -0.394
   277   hc     1   UNK  H173  277     0.023592      1.00800 ; qtot -0.370
   278   hc     1   UNK  H176  278     0.023592      1.00800 ; qtot -0.346
   279   hc     1   UNK  H179  279     0.023951      1.00800 ; qtot -0.322
   280   hc     1   UNK  H182  280     0.023951      1.00800 ; qtot -0.298
   281   hc     1   UNK  H185  281     0.023951      1.00800 ; qtot -0.275
   282   hc     1   UNK  H188  282     0.023698      1.00800 ; qtot -0.251
   283   hc     1   UNK  H191  283     0.023698      1.00800 ; qtot -0.227
   284   hc     1   UNK  H194  284     0.023698      1.00800 ; qtot -0.203
   285   hc     1   UNK  H197  285     0.023698      1.00800 ; qtot -0.180
   286   hc     1   UNK  H200  286     0.023698      1.00800 ; qtot -0.156
   287   hc     1   UNK  H203  287     0.023698      1.00800 ; qtot -0.132
   288   hc     1   UNK  H206  288     0.023592      1.00800 ; qtot -0.109
   289   hc     1   UNK  H209  289     0.023592      1.00800 ; qtot -0.085
   290   hc     1   UNK  H212  290     0.023592      1.00800 ; qtot -0.062
   291   hn     1   UNK   H73  291     0.149439      1.00800 ; qtot 0.088
   292   c3     1   UNK   C41  292    -0.025929     12.01000 ; qtot 0.062
   293   oh     1   UNK   O15  293    -0.392562     16.00000 ; qtot -0.331
   294   c3     1   UNK   C45  294     0.059375     12.01000 ; qtot -0.271
   295    n     1   UNK   N13  295    -0.312618     14.01000 ; qtot -0.584
   296   c3     1   UNK   C48  296    -0.006011     12.01000 ; qtot -0.590
   297    o     1   UNK   O18  297    -0.277065     16.00000 ; qtot -0.867
   298   c3     1   UNK   C51  298    -0.028080     12.01000 ; qtot -0.895
   299   c3     1   UNK   C54  299    -0.025376     12.01000 ; qtot -0.920
   300   c3     1   UNK   C57  300    -0.044798     12.01000 ; qtot -0.965
   301   c3     1   UNK   C60  301    -0.048748     12.01000 ; qtot -1.014
   302   c3     1   UNK   C63  302    -0.046426     12.01000 ; qtot -1.060
   303   c3     1   UNK   C66  303    -0.019794     12.01000 ; qtot -1.080
   304   c3     1   UNK   C69  304    -0.026010     12.01000 ; qtot -1.106
   305   c3     1   UNK   C72  305    -0.005618     12.01000 ; qtot -1.112
   306   c2     1   UNK   C75  306    -0.063524     12.01000 ; qtot -1.175
   307   c2     1   UNK   C78  307    -0.084126     12.01000 ; qtot -1.259
   308   c3     1   UNK   C81  308    -0.030837     12.01000 ; qtot -1.290
   309   c3     1   UNK   C84  309    -0.042519     12.01000 ; qtot -1.333
   310   c3     1   UNK   C87  310    -0.037522     12.01000 ; qtot -1.370
   311   c3     1   UNK   C90  311     0.053653     12.01000 ; qtot -1.317
   312   c3     1   UNK   C93  312    -0.004977     12.01000 ; qtot -1.322
   313   c3     1   UNK   C96  313    -0.037860     12.01000 ; qtot -1.359
   314   c3     1   UNK   C99  314    -0.047062     12.01000 ; qtot -1.407
   315   c3     1   UNK  C102  315    -0.034782     12.01000 ; qtot -1.441
   316   c3     1   UNK  C105  316    -0.040466     12.01000 ; qtot -1.482
   317    c     1   UNK  C108  317     0.218543     12.01000 ; qtot -1.263
   318   c3     1   UNK  C111  318    -0.058513     12.01000 ; qtot -1.322
   319   c3     1   UNK  C114  319    -0.059057     12.01000 ; qtot -1.381
   320   c3     1   UNK  C117  320    -0.059887     12.01000 ; qtot -1.441
   321   c3     1   UNK  C120  321    -0.055324     12.01000 ; qtot -1.496
   322   c3     1   UNK  C123  322    -0.057146     12.01000 ; qtot -1.553
   323   c3     1   UNK  C126  323    -0.057146     12.01000 ; qtot -1.610
   324   c3     1   UNK  C129  324    -0.059887     12.01000 ; qtot -1.670
   325   c3     1   UNK   C42  325     0.034496     12.01000 ; qtot -1.636
   326   hc     1   UNK   H74  326     0.036011      1.00800 ; qtot -1.600
   327   hc     1   UNK   H78  327     0.031750      1.00800 ; qtot -1.568
   328   hc     1   UNK   H81  328     0.031487      1.00800 ; qtot -1.536
   329   hc     1   UNK   H84  329     0.029339      1.00800 ; qtot -1.507
   330   hc     1   UNK   H87  330     0.029339      1.00800 ; qtot -1.478
   331   h1     1   UNK   H90  331     0.060617      1.00800 ; qtot -1.417
   332   hc     1   UNK   H93  332     0.027329      1.00800 ; qtot -1.390
   333   hc     1   UNK   H96  333     0.027329      1.00800 ; qtot -1.363
   334   hc     1   UNK   H99  334     0.027000      1.00800 ; qtot -1.336
   335   hc     1   UNK  H102  335     0.027000      1.00800 ; qtot -1.309
   336   hc     1   UNK  H105  336     0.027265      1.00800 ; qtot -1.281
   337   hc     1   UNK  H108  337     0.027265      1.00800 ; qtot -1.254
   338   ha     1   UNK  H111  338     0.057578      1.00800 ; qtot -1.196
   339   hc     1   UNK  H114  339     0.031301      1.00800 ; qtot -1.165
   340   hc     1   UNK  H117  340     0.031301      1.00800 ; qtot -1.134
   341   hc     1   UNK  H120  341     0.027597      1.00800 ; qtot -1.106
   342   hc     1   UNK  H123  342     0.027597      1.00800 ; qtot -1.079
   343   hc     1   UNK  H126  343     0.027789      1.00800 ; qtot -1.051
   344   hc     1   UNK  H129  344     0.027789      1.00800 ; qtot -1.023
   345   hc     1   UNK  H132  345     0.027777      1.00800 ; qtot -0.995
   346   hc     1   UNK  H135  346     0.027777      1.00800 ; qtot -0.967
   347   hc     1   UNK  H138  347     0.027237      1.00800 ; qtot -0.940
   348   hc     1   UNK  H141  348     0.027237      1.00800 ; qtot -0.913
   349   hc     1   UNK  H144  349     0.027849      1.00800 ; qtot -0.885
   350   hc     1   UNK  H147  350     0.027849      1.00800 ; qtot -0.857
   351   hc     1   UNK  H150  351     0.023644      1.00800 ; qtot -0.834
   352   hc     1   UNK  H153  352     0.023644      1.00800 ; qtot -0.810
   353   hc     1   UNK  H156  353     0.023644      1.00800 ; qtot -0.786
   354   hc     1   UNK  H159  354     0.023623      1.00800 ; qtot -0.763
   355   hc     1   UNK  H162  355     0.023623      1.00800 ; qtot -0.739
   356   hc     1   UNK  H165  356     0.023623      1.00800 ; qtot -0.716
   357   ho     1   UNK  H168  357     0.210474      1.00800 ; qtot -0.505
   358   hc     1   UNK  H171  358     0.023592      1.00800 ; qtot -0.481
   359   hc     1   UNK  H174  359     0.023592      1.00800 ; qtot -0.458
   360   hc     1   UNK  H177  360     0.023592      1.00800 ; qtot -0.434
   361   hc     1   UNK  H180  361     0.023951      1.00800 ; qtot -0.410
   362   hc     1   UNK  H183  362     0.023951      1.00800 ; qtot -0.386
   363   hc     1   UNK  H186  363     0.023951      1.00800 ; qtot -0.362
   364   hc     1   UNK  H189  364     0.023698      1.00800 ; qtot -0.339
   365   hc     1   UNK  H192  365     0.023698      1.00800 ; qtot -0.315
   366   hc     1   UNK  H195  366     0.023698      1.00800 ; qtot -0.291
   367   hc     1   UNK  H198  367     0.023698      1.00800 ; qtot -0.268
   368   hc     1   UNK  H201  368     0.023698      1.00800 ; qtot -0.244
   369   hc     1   UNK  H204  369     0.023698      1.00800 ; qtot -0.220
   370   hc     1   UNK  H207  370     0.023592      1.00800 ; qtot -0.197
   371   hc     1   UNK  H210  371     0.023592      1.00800 ; qtot -0.173
   372   hc     1   UNK  H213  372     0.023592      1.00800 ; qtot -0.149
   373   hn     1   UNK   H75  373     0.149439      1.00800 ; qtot 0.000

[ bonds ]
;   ai     aj funct   r             k
     1      3   1    1.5375e-01    2.5179e+05 ;     C1 - C2    
     1      9   1    1.5375e-01    2.5179e+05 ;     C1 - C6    
     1     98   1    1.0969e-01    2.7665e+05 ;     C1 - H4    
     1     99   1    1.0969e-01    2.7665e+05 ;     C1 - H5    
     2      3   1    1.4233e-01    2.6501e+05 ;     O1 - C2    
     2    126   1    9.7300e-02    3.1079e+05 ;     O1 - H32   
     3      5   1    1.5375e-01    2.5179e+05 ;     C2 - C3    
     3    100   1    1.0969e-01    2.7665e+05 ;     C2 - H6    
     4     26   1    1.3789e-01    3.5782e+05 ;     N1 - C23   
     4     34   1    1.4619e-01    2.7506e+05 ;     N1 - C39   
     4    142   1    1.0129e-01    3.3740e+05 ;     N1 - H71   
     5      7   1    1.5375e-01    2.5179e+05 ;     C3 - C4    
     5     31   1    1.5375e-01    2.5179e+05 ;     C3 - C28   
     5     32   1    1.5375e-01    2.5179e+05 ;     C3 - C29   
     6     26   1    1.2183e-01    5.3363e+05 ;     O3 - C23   
     7      8   1    1.5375e-01    2.5179e+05 ;     C4 - C5    
     7     10   1    1.5375e-01    2.5179e+05 ;     C4 - C7    
     7     97   1    1.0969e-01    2.7665e+05 ;     C4 - H3    
     8      9   1    1.5375e-01    2.5179e+05 ;     C5 - C6    
     8     13   1    1.5375e-01    2.5179e+05 ;     C5 - C10   
     8     28   1    1.5375e-01    2.5179e+05 ;     C5 - C25   
     9    101   1    1.0969e-01    2.7665e+05 ;     C6 - H7    
     9    102   1    1.0969e-01    2.7665e+05 ;     C6 - H8    
    10     11   1    1.5375e-01    2.5179e+05 ;     C7 - C8    
    10    103   1    1.0969e-01    2.7665e+05 ;     C7 - H9    
    10    104   1    1.0969e-01    2.7665e+05 ;     C7 - H10   
    11     12   1    1.5375e-01    2.5179e+05 ;     C8 - C9    
    11    105   1    1.0969e-01    2.7665e+05 ;     C8 - H11   
    11    106   1    1.0969e-01    2.7665e+05 ;     C8 - H12   
    12     13   1    1.5375e-01    2.5179e+05 ;     C9 - C10   
    12     14   1    1.5375e-01    2.5179e+05 ;     C9 - C11   
    12     27   1    1.5375e-01    2.5179e+05 ;     C9 - C24   
    13     17   1    1.5375e-01    2.5179e+05 ;    C10 - C14   
    13     96   1    1.0969e-01    2.7665e+05 ;    C10 - H2    
    14     15   1    1.5095e-01    2.7347e+05 ;    C11 - C12   
    14     18   1    1.5375e-01    2.5179e+05 ;    C11 - C15   
    14     30   1    1.5375e-01    2.5179e+05 ;    C11 - C27   
    15     16   1    1.3343e-01    4.7647e+05 ;    C12 - C13   
    15     21   1    1.5095e-01    2.7347e+05 ;    C12 - C18   
    16     17   1    1.5095e-01    2.7347e+05 ;    C13 - C14   
    16    107   1    1.0879e-01    2.8711e+05 ;    C13 - H13   
    17    108   1    1.0969e-01    2.7665e+05 ;    C14 - H14   
    17    109   1    1.0969e-01    2.7665e+05 ;    C14 - H15   
    18     19   1    1.5375e-01    2.5179e+05 ;    C15 - C16   
    18    110   1    1.0969e-01    2.7665e+05 ;    C15 - H16   
    18    111   1    1.0969e-01    2.7665e+05 ;    C15 - H17   
    19     20   1    1.5375e-01    2.5179e+05 ;    C16 - C17   
    19    112   1    1.0969e-01    2.7665e+05 ;    C16 - H18   
    19    113   1    1.0969e-01    2.7665e+05 ;    C16 - H19   
    20     21   1    1.5375e-01    2.5179e+05 ;    C17 - C18   
    20     22   1    1.5375e-01    2.5179e+05 ;    C17 - C19   
    20     26   1    1.5241e-01    2.6192e+05 ;    C17 - C23   
    21     25   1    1.5375e-01    2.5179e+05 ;    C18 - C22   
    21     95   1    1.0969e-01    2.7665e+05 ;    C18 - H1    
    22     23   1    1.5375e-01    2.5179e+05 ;    C19 - C20   
    22    114   1    1.0969e-01    2.7665e+05 ;    C19 - H20   
    22    115   1    1.0969e-01    2.7665e+05 ;    C19 - H21   
    23     24   1    1.5375e-01    2.5179e+05 ;    C20 - C21   
    23    116   1    1.0969e-01    2.7665e+05 ;    C20 - H22   
    23    117   1    1.0969e-01    2.7665e+05 ;    C20 - H23   
    24     25   1    1.5375e-01    2.5179e+05 ;    C21 - C22   
    24     29   1    1.5375e-01    2.5179e+05 ;    C21 - C26   
    24     33   1    1.5375e-01    2.5179e+05 ;    C21 - C30   
    25    118   1    1.0969e-01    2.7665e+05 ;    C22 - H24   
    25    119   1    1.0969e-01    2.7665e+05 ;    C22 - H25   
    27    120   1    1.0969e-01    2.7665e+05 ;    C24 - H26   
    27    121   1    1.0969e-01    2.7665e+05 ;    C24 - H27   
    27    122   1    1.0969e-01    2.7665e+05 ;    C24 - H28   
    28    123   1    1.0969e-01    2.7665e+05 ;    C25 - H29   
    28    124   1    1.0969e-01    2.7665e+05 ;    C25 - H30   
    28    125   1    1.0969e-01    2.7665e+05 ;    C25 - H31   
    29    127   1    1.0969e-01    2.7665e+05 ;    C26 - H33   
    29    128   1    1.0969e-01    2.7665e+05 ;    C26 - H34   
    29    129   1    1.0969e-01    2.7665e+05 ;    C26 - H35   
    30    130   1    1.0969e-01    2.7665e+05 ;    C27 - H36   
    30    131   1    1.0969e-01    2.7665e+05 ;    C27 - H37   
    30    132   1    1.0969e-01    2.7665e+05 ;    C27 - H38   
    31    133   1    1.0969e-01    2.7665e+05 ;    C28 - H39   
    31    134   1    1.0969e-01    2.7665e+05 ;    C28 - H40   
    31    135   1    1.0969e-01    2.7665e+05 ;    C28 - H41   
    32    136   1    1.0969e-01    2.7665e+05 ;    C29 - H42   
    32    137   1    1.0969e-01    2.7665e+05 ;    C29 - H43   
    32    138   1    1.0969e-01    2.7665e+05 ;    C29 - H44   
    33    139   1    1.0969e-01    2.7665e+05 ;    C30 - H45   
    33    140   1    1.0969e-01    2.7665e+05 ;    C30 - H46   
    33    141   1    1.0969e-01    2.7665e+05 ;    C30 - H47   
    34     36   1    1.5375e-01    2.5179e+05 ;    C39 - C43   
    34    143   1    1.0969e-01    2.7665e+05 ;    C39 - H76   
    34    144   1    1.0969e-01    2.7665e+05 ;    C39 - H79   
    35     94   1    1.4619e-01    2.7506e+05 ;     N2 - C38   
    35    236   1    1.3789e-01    3.5782e+05 ;     N2 - C107  
    35    291   1    1.0129e-01    3.3740e+05 ;     N2 - H73   
    36     37   1    1.4316e-01    2.5824e+05 ;    C43 - O13   
    36    145   1    1.0969e-01    2.7665e+05 ;    C43 - H82   
    36    146   1    1.0969e-01    2.7665e+05 ;    C43 - H85   
    37     38   1    1.4316e-01    2.5824e+05 ;    O13 - C46   
    38     39   1    1.5375e-01    2.5179e+05 ;    C46 - C49   
    38    147   1    1.0969e-01    2.7665e+05 ;    C46 - H88   
    38    148   1    1.0969e-01    2.7665e+05 ;    C46 - H91   
    39     40   1    1.4316e-01    2.5824e+05 ;    C49 - O2    
    39    149   1    1.0969e-01    2.7665e+05 ;    C49 - H94   
    39    150   1    1.0969e-01    2.7665e+05 ;    C49 - H97   
    40     41   1    1.4316e-01    2.5824e+05 ;     O2 - C52   
    41     42   1    1.5375e-01    2.5179e+05 ;    C52 - C55   
    41    151   1    1.0969e-01    2.7665e+05 ;    C52 - H100  
    41    152   1    1.0969e-01    2.7665e+05 ;    C52 - H103  
    42     43   1    1.4316e-01    2.5824e+05 ;    C55 - O16   
    42    153   1    1.0969e-01    2.7665e+05 ;    C55 - H106  
    42    154   1    1.0969e-01    2.7665e+05 ;    C55 - H109  
    43     44   1    1.4316e-01    2.5824e+05 ;    O16 - C58   
    44     45   1    1.5375e-01    2.5179e+05 ;    C58 - C61   
    44    155   1    1.0969e-01    2.7665e+05 ;    C58 - H112  
    44    156   1    1.0969e-01    2.7665e+05 ;    C58 - H115  
    45     46   1    1.4316e-01    2.5824e+05 ;    C61 - O4    
    45    157   1    1.0969e-01    2.7665e+05 ;    C61 - H118  
    45    158   1    1.0969e-01    2.7665e+05 ;    C61 - H121  
    46     47   1    1.4316e-01    2.5824e+05 ;     O4 - C64   
    47     48   1    1.5375e-01    2.5179e+05 ;    C64 - C67   
    47    159   1    1.0969e-01    2.7665e+05 ;    C64 - H124  
    47    160   1    1.0969e-01    2.7665e+05 ;    C64 - H127  
    48     49   1    1.4629e-01    2.7422e+05 ;    C67 - N3    
    48    161   1    1.0969e-01    2.7665e+05 ;    C67 - H130  
    48    162   1    1.0969e-01    2.7665e+05 ;    C67 - H133  
    49     50   1    1.3558e-01    4.3965e+05 ;     N3 - N4    
    49     52   1    1.3802e-01    3.5631e+05 ;     N3 - C70   
    50     51   1    1.2988e-01    5.3346e+05 ;     N4 - N5    
    51     53   1    1.3694e-01    3.6911e+05 ;     N5 - C73   
    52     53   1    1.3729e-01    4.1915e+05 ;    C70 - C73   
    52    163   1    1.0817e-01    2.9455e+05 ;    C70 - H136  
    53     54   1    1.5015e-01    2.8016e+05 ;    C73 - C76   
    54     74   1    1.4647e-01    2.7271e+05 ;    C76 - N9    
    54    187   1    1.0969e-01    2.7665e+05 ;    C76 - H208  
    54    188   1    1.0969e-01    2.7665e+05 ;    C76 - H211  
    55     56   1    1.5015e-01    2.8016e+05 ;    C79 - C82   
    55     74   1    1.4647e-01    2.7271e+05 ;    C79 - N9    
    55    164   1    1.0969e-01    2.7665e+05 ;    C79 - H139  
    55    165   1    1.0969e-01    2.7665e+05 ;    C79 - H142  
    56     57   1    1.3729e-01    4.1915e+05 ;    C82 - C85   
    56     58   1    1.3694e-01    3.6911e+05 ;    C82 - N6    
    57     60   1    1.3802e-01    3.5631e+05 ;    C85 - N8    
    57    166   1    1.0817e-01    2.9455e+05 ;    C85 - H145  
    58     59   1    1.2988e-01    5.3346e+05 ;     N6 - N7    
    59     60   1    1.3541e-01    4.4217e+05 ;     N7 - N8    
    60     61   1    1.4629e-01    2.7422e+05 ;     N8 - C88   
    61     62   1    1.5375e-01    2.5179e+05 ;    C88 - C91   
    61    167   1    1.0969e-01    2.7665e+05 ;    C88 - H148  
    61    168   1    1.0969e-01    2.7665e+05 ;    C88 - H151  
    62     63   1    1.4316e-01    2.5824e+05 ;    C91 - O5    
    62    169   1    1.0969e-01    2.7665e+05 ;    C91 - H154  
    62    170   1    1.0969e-01    2.7665e+05 ;    C91 - H157  
    63     64   1    1.4316e-01    2.5824e+05 ;     O5 - C94   
    64     65   1    1.5375e-01    2.5179e+05 ;    C94 - C97   
    64    171   1    1.0969e-01    2.7665e+05 ;    C94 - H160  
    64    172   1    1.0969e-01    2.7665e+05 ;    C94 - H163  
    65     66   1    1.4316e-01    2.5824e+05 ;    C97 - O6    
    65    173   1    1.0969e-01    2.7665e+05 ;    C97 - H166  
    65    174   1    1.0969e-01    2.7665e+05 ;    C97 - H169  
    66     67   1    1.4316e-01    2.5824e+05 ;     O6 - C100  
    67     68   1    1.5375e-01    2.5179e+05 ;   C100 - C103  
    67    175   1    1.0969e-01    2.7665e+05 ;   C100 - H172  
    67    176   1    1.0969e-01    2.7665e+05 ;   C100 - H175  
    68     69   1    1.4316e-01    2.5824e+05 ;   C103 - O7    
    68    177   1    1.0969e-01    2.7665e+05 ;   C103 - H178  
    68    178   1    1.0969e-01    2.7665e+05 ;   C103 - H181  
    69     70   1    1.4316e-01    2.5824e+05 ;     O7 - C106  
    70     71   1    1.5375e-01    2.5179e+05 ;   C106 - C109  
    70    179   1    1.0969e-01    2.7665e+05 ;   C106 - H184  
    70    180   1    1.0969e-01    2.7665e+05 ;   C106 - H187  
    71     72   1    1.4316e-01    2.5824e+05 ;   C109 - O8    
    71    181   1    1.0969e-01    2.7665e+05 ;   C109 - H190  
    71    182   1    1.0969e-01    2.7665e+05 ;   C109 - H193  
    72     73   1    1.4316e-01    2.5824e+05 ;     O8 - C112  
    73    183   1    1.0969e-01    2.7665e+05 ;   C112 - H196  
    73    184   1    1.0969e-01    2.7665e+05 ;   C112 - H199  
    73    325   1    1.5375e-01    2.5179e+05 ;   C112 - C42   
    74     75   1    1.4647e-01    2.7271e+05 ;     N9 - C115  
    75     76   1    1.5015e-01    2.8016e+05 ;   C115 - C118  
    75    189   1    1.0969e-01    2.7665e+05 ;   C115 - H48   
    75    190   1    1.0969e-01    2.7665e+05 ;   C115 - H49   
    76     77   1    1.3729e-01    4.1915e+05 ;   C118 - C121  
    76     78   1    1.3694e-01    3.6911e+05 ;   C118 - N10   
    77     80   1    1.3802e-01    3.5631e+05 ;   C121 - N12   
    77    191   1    1.0817e-01    2.9455e+05 ;   C121 - H50   
    78     79   1    1.2988e-01    5.3346e+05 ;    N10 - N11   
    79     80   1    1.3541e-01    4.4217e+05 ;    N11 - N12   
    80     81   1    1.4629e-01    2.7422e+05 ;    N12 - C124  
    81     82   1    1.5375e-01    2.5179e+05 ;   C124 - C127  
    81    192   1    1.0969e-01    2.7665e+05 ;   C124 - H51   
    81    193   1    1.0969e-01    2.7665e+05 ;   C124 - H52   
    82     83   1    1.4316e-01    2.5824e+05 ;   C127 - O9    
    82    194   1    1.0969e-01    2.7665e+05 ;   C127 - H53   
    82    195   1    1.0969e-01    2.7665e+05 ;   C127 - H54   
    83     84   1    1.4316e-01    2.5824e+05 ;     O9 - C31   
    84     85   1    1.5375e-01    2.5179e+05 ;    C31 - C32   
    84    196   1    1.0969e-01    2.7665e+05 ;    C31 - H55   
    84    197   1    1.0969e-01    2.7665e+05 ;    C31 - H56   
    85     86   1    1.4316e-01    2.5824e+05 ;    C32 - O10   
    85    198   1    1.0969e-01    2.7665e+05 ;    C32 - H57   
    85    199   1    1.0969e-01    2.7665e+05 ;    C32 - H58   
    86     87   1    1.4316e-01    2.5824e+05 ;    O10 - C33   
    87     88   1    1.5375e-01    2.5179e+05 ;    C33 - C34   
    87    200   1    1.0969e-01    2.7665e+05 ;    C33 - H59   
    87    201   1    1.0969e-01    2.7665e+05 ;    C33 - H60   
    88     89   1    1.4316e-01    2.5824e+05 ;    C34 - O11   
    88    202   1    1.0969e-01    2.7665e+05 ;    C34 - H61   
    88    203   1    1.0969e-01    2.7665e+05 ;    C34 - H62   
    89     90   1    1.4316e-01    2.5824e+05 ;    O11 - C35   
    90     91   1    1.5375e-01    2.5179e+05 ;    C35 - C36   
    90    204   1    1.0969e-01    2.7665e+05 ;    C35 - H63   
    90    205   1    1.0969e-01    2.7665e+05 ;    C35 - H64   
    91     92   1    1.4316e-01    2.5824e+05 ;    C36 - O12   
    91    206   1    1.0969e-01    2.7665e+05 ;    C36 - H65   
    91    207   1    1.0969e-01    2.7665e+05 ;    C36 - H66   
    92     93   1    1.4316e-01    2.5824e+05 ;    O12 - C37   
    93     94   1    1.5375e-01    2.5179e+05 ;    C37 - C38   
    93    208   1    1.0969e-01    2.7665e+05 ;    C37 - H67   
    93    209   1    1.0969e-01    2.7665e+05 ;    C37 - H68   
    94    210   1    1.0969e-01    2.7665e+05 ;    C38 - H69   
    94    211   1    1.0969e-01    2.7665e+05 ;    C38 - H70   
   185    325   1    1.0969e-01    2.7665e+05 ;   H202 - C42   
   186    325   1    1.0969e-01    2.7665e+05 ;   H205 - C42   
   212    214   1    1.5375e-01    2.5179e+05 ;    C40 - C44   
   212    219   1    1.5375e-01    2.5179e+05 ;    C40 - C56   
   212    247   1    1.0969e-01    2.7665e+05 ;    C40 - H83   
   212    248   1    1.0969e-01    2.7665e+05 ;    C40 - H86   
   213    214   1    1.4233e-01    2.6501e+05 ;    O14 - C44   
   213    275   1    9.7300e-02    3.1079e+05 ;    O14 - H167  
   214    215   1    1.5375e-01    2.5179e+05 ;    C44 - C47   
   214    249   1    1.0969e-01    2.7665e+05 ;    C44 - H89   
   215    217   1    1.5375e-01    2.5179e+05 ;    C47 - C50   
   215    241   1    1.5375e-01    2.5179e+05 ;    C47 - C122  
   215    242   1    1.5375e-01    2.5179e+05 ;    C47 - C125  
   216    236   1    1.2183e-01    5.3363e+05 ;    O17 - C107  
   217    218   1    1.5375e-01    2.5179e+05 ;    C50 - C53   
   217    220   1    1.5375e-01    2.5179e+05 ;    C50 - C59   
   217    246   1    1.0969e-01    2.7665e+05 ;    C50 - H80   
   218    219   1    1.5375e-01    2.5179e+05 ;    C53 - C56   
   218    223   1    1.5375e-01    2.5179e+05 ;    C53 - C68   
   218    238   1    1.5375e-01    2.5179e+05 ;    C53 - C113  
   219    250   1    1.0969e-01    2.7665e+05 ;    C56 - H92   
   219    251   1    1.0969e-01    2.7665e+05 ;    C56 - H95   
   220    221   1    1.5375e-01    2.5179e+05 ;    C59 - C62   
   220    252   1    1.0969e-01    2.7665e+05 ;    C59 - H98   
   220    253   1    1.0969e-01    2.7665e+05 ;    C59 - H101  
   221    222   1    1.5375e-01    2.5179e+05 ;    C62 - C65   
   221    254   1    1.0969e-01    2.7665e+05 ;    C62 - H104  
   221    255   1    1.0969e-01    2.7665e+05 ;    C62 - H107  
   222    223   1    1.5375e-01    2.5179e+05 ;    C65 - C68   
   222    224   1    1.5375e-01    2.5179e+05 ;    C65 - C71   
   222    237   1    1.5375e-01    2.5179e+05 ;    C65 - C110  
   223    227   1    1.5375e-01    2.5179e+05 ;    C68 - C80   
   223    245   1    1.0969e-01    2.7665e+05 ;    C68 - H77   
   224    225   1    1.5095e-01    2.7347e+05 ;    C71 - C74   
   224    228   1    1.5375e-01    2.5179e+05 ;    C71 - C83   
   224    240   1    1.5375e-01    2.5179e+05 ;    C71 - C119  
   225    226   1    1.3343e-01    4.7647e+05 ;    C74 - C77   
   225    231   1    1.5095e-01    2.7347e+05 ;    C74 - C92   
   226    227   1    1.5095e-01    2.7347e+05 ;    C77 - C80   
   226    256   1    1.0879e-01    2.8711e+05 ;    C77 - H110  
   227    257   1    1.0969e-01    2.7665e+05 ;    C80 - H113  
   227    258   1    1.0969e-01    2.7665e+05 ;    C80 - H116  
   228    229   1    1.5375e-01    2.5179e+05 ;    C83 - C86   
   228    259   1    1.0969e-01    2.7665e+05 ;    C83 - H119  
   228    260   1    1.0969e-01    2.7665e+05 ;    C83 - H122  
   229    230   1    1.5375e-01    2.5179e+05 ;    C86 - C89   
   229    261   1    1.0969e-01    2.7665e+05 ;    C86 - H125  
   229    262   1    1.0969e-01    2.7665e+05 ;    C86 - H128  
   230    231   1    1.5375e-01    2.5179e+05 ;    C89 - C92   
   230    232   1    1.5375e-01    2.5179e+05 ;    C89 - C95   
   230    236   1    1.5241e-01    2.6192e+05 ;    C89 - C107  
   231    235   1    1.5375e-01    2.5179e+05 ;    C92 - C104  
   231    244   1    1.0969e-01    2.7665e+05 ;    C92 - H72   
   232    233   1    1.5375e-01    2.5179e+05 ;    C95 - C98   
   232    263   1    1.0969e-01    2.7665e+05 ;    C95 - H131  
   232    264   1    1.0969e-01    2.7665e+05 ;    C95 - H134  
   233    234   1    1.5375e-01    2.5179e+05 ;    C98 - C101  
   233    265   1    1.0969e-01    2.7665e+05 ;    C98 - H137  
   233    266   1    1.0969e-01    2.7665e+05 ;    C98 - H140  
   234    235   1    1.5375e-01    2.5179e+05 ;   C101 - C104  
   234    239   1    1.5375e-01    2.5179e+05 ;   C101 - C116  
   234    243   1    1.5375e-01    2.5179e+05 ;   C101 - C128  
   235    267   1    1.0969e-01    2.7665e+05 ;   C104 - H143  
   235    268   1    1.0969e-01    2.7665e+05 ;   C104 - H146  
   237    269   1    1.0969e-01    2.7665e+05 ;   C110 - H149  
   237    270   1    1.0969e-01    2.7665e+05 ;   C110 - H152  
   237    271   1    1.0969e-01    2.7665e+05 ;   C110 - H155  
   238    272   1    1.0969e-01    2.7665e+05 ;   C113 - H158  
   238    273   1    1.0969e-01    2.7665e+05 ;   C113 - H161  
   238    274   1    1.0969e-01    2.7665e+05 ;   C113 - H164  
   239    276   1    1.0969e-01    2.7665e+05 ;   C116 - H170  
   239    277   1    1.0969e-01    2.7665e+05 ;   C116 - H173  
   239    278   1    1.0969e-01    2.7665e+05 ;   C116 - H176  
   240    279   1    1.0969e-01    2.7665e+05 ;   C119 - H179  
   240    280   1    1.0969e-01    2.7665e+05 ;   C119 - H182  
   240    281   1    1.0969e-01    2.7665e+05 ;   C119 - H185  
   241    282   1    1.0969e-01    2.7665e+05 ;   C122 - H188  
   241    283   1    1.0969e-01    2.7665e+05 ;   C122 - H191  
   241    284   1    1.0969e-01    2.7665e+05 ;   C122 - H194  
   242    285   1    1.0969e-01    2.7665e+05 ;   C125 - H197  
   242    286   1    1.0969e-01    2.7665e+05 ;   C125 - H200  
   242    287   1    1.0969e-01    2.7665e+05 ;   C125 - H203  
   243    288   1    1.0969e-01    2.7665e+05 ;   C128 - H206  
   243    289   1    1.0969e-01    2.7665e+05 ;   C128 - H209  
   243    290   1    1.0969e-01    2.7665e+05 ;   C128 - H212  
   292    294   1    1.5375e-01    2.5179e+05 ;    C41 - C45   
   292    300   1    1.5375e-01    2.5179e+05 ;    C41 - C57   
   292    329   1    1.0969e-01    2.7665e+05 ;    C41 - H84   
   292    330   1    1.0969e-01    2.7665e+05 ;    C41 - H87   
   293    294   1    1.4233e-01    2.6501e+05 ;    O15 - C45   
   293    357   1    9.7300e-02    3.1079e+05 ;    O15 - H168  
   294    296   1    1.5375e-01    2.5179e+05 ;    C45 - C48   
   294    331   1    1.0969e-01    2.7665e+05 ;    C45 - H90   
   295    317   1    1.3789e-01    3.5782e+05 ;    N13 - C108  
   295    325   1    1.4619e-01    2.7506e+05 ;    N13 - C42   
   295    373   1    1.0129e-01    3.3740e+05 ;    N13 - H75   
   296    298   1    1.5375e-01    2.5179e+05 ;    C48 - C51   
   296    322   1    1.5375e-01    2.5179e+05 ;    C48 - C123  
   296    323   1    1.5375e-01    2.5179e+05 ;    C48 - C126  
   297    317   1    1.2183e-01    5.3363e+05 ;    O18 - C108  
   298    299   1    1.5375e-01    2.5179e+05 ;    C51 - C54   
   298    301   1    1.5375e-01    2.5179e+05 ;    C51 - C60   
   298    328   1    1.0969e-01    2.7665e+05 ;    C51 - H81   
   299    300   1    1.5375e-01    2.5179e+05 ;    C54 - C57   
   299    304   1    1.5375e-01    2.5179e+05 ;    C54 - C69   
   299    319   1    1.5375e-01    2.5179e+05 ;    C54 - C114  
   300    332   1    1.0969e-01    2.7665e+05 ;    C57 - H93   
   300    333   1    1.0969e-01    2.7665e+05 ;    C57 - H96   
   301    302   1    1.5375e-01    2.5179e+05 ;    C60 - C63   
   301    334   1    1.0969e-01    2.7665e+05 ;    C60 - H99   
   301    335   1    1.0969e-01    2.7665e+05 ;    C60 - H102  
   302    303   1    1.5375e-01    2.5179e+05 ;    C63 - C66   
   302    336   1    1.0969e-01    2.7665e+05 ;    C63 - H105  
   302    337   1    1.0969e-01    2.7665e+05 ;    C63 - H108  
   303    304   1    1.5375e-01    2.5179e+05 ;    C66 - C69   
   303    305   1    1.5375e-01    2.5179e+05 ;    C66 - C72   
   303    318   1    1.5375e-01    2.5179e+05 ;    C66 - C111  
   304    308   1    1.5375e-01    2.5179e+05 ;    C69 - C81   
   304    327   1    1.0969e-01    2.7665e+05 ;    C69 - H78   
   305    306   1    1.5095e-01    2.7347e+05 ;    C72 - C75   
   305    309   1    1.5375e-01    2.5179e+05 ;    C72 - C84   
   305    321   1    1.5375e-01    2.5179e+05 ;    C72 - C120  
   306    307   1    1.3343e-01    4.7647e+05 ;    C75 - C78   
   306    312   1    1.5095e-01    2.7347e+05 ;    C75 - C93   
   307    308   1    1.5095e-01    2.7347e+05 ;    C78 - C81   
   307    338   1    1.0879e-01    2.8711e+05 ;    C78 - H111  
   308    339   1    1.0969e-01    2.7665e+05 ;    C81 - H114  
   308    340   1    1.0969e-01    2.7665e+05 ;    C81 - H117  
   309    310   1    1.5375e-01    2.5179e+05 ;    C84 - C87   
   309    341   1    1.0969e-01    2.7665e+05 ;    C84 - H120  
   309    342   1    1.0969e-01    2.7665e+05 ;    C84 - H123  
   310    311   1    1.5375e-01    2.5179e+05 ;    C87 - C90   
   310    343   1    1.0969e-01    2.7665e+05 ;    C87 - H126  
   310    344   1    1.0969e-01    2.7665e+05 ;    C87 - H129  
   311    312   1    1.5375e-01    2.5179e+05 ;    C90 - C93   
   311    313   1    1.5375e-01    2.5179e+05 ;    C90 - C96   
   311    317   1    1.5241e-01    2.6192e+05 ;    C90 - C108  
   312    316   1    1.5375e-01    2.5179e+05 ;    C93 - C105  
   312    326   1    1.0969e-01    2.7665e+05 ;    C93 - H74   
   313    314   1    1.5375e-01    2.5179e+05 ;    C96 - C99   
   313    345   1    1.0969e-01    2.7665e+05 ;    C96 - H132  
   313    346   1    1.0969e-01    2.7665e+05 ;    C96 - H135  
   314    315   1    1.5375e-01    2.5179e+05 ;    C99 - C102  
   314    347   1    1.0969e-01    2.7665e+05 ;    C99 - H138  
   314    348   1    1.0969e-01    2.7665e+05 ;    C99 - H141  
   315    316   1    1.5375e-01    2.5179e+05 ;   C102 - C105  
   315    320   1    1.5375e-01    2.5179e+05 ;   C102 - C117  
   315    324   1    1.5375e-01    2.5179e+05 ;   C102 - C129  
   316    349   1    1.0969e-01    2.7665e+05 ;   C105 - H144  
   316    350   1    1.0969e-01    2.7665e+05 ;   C105 - H147  
   318    351   1    1.0969e-01    2.7665e+05 ;   C111 - H150  
   318    352   1    1.0969e-01    2.7665e+05 ;   C111 - H153  
   318    353   1    1.0969e-01    2.7665e+05 ;   C111 - H156  
   319    354   1    1.0969e-01    2.7665e+05 ;   C114 - H159  
   319    355   1    1.0969e-01    2.7665e+05 ;   C114 - H162  
   319    356   1    1.0969e-01    2.7665e+05 ;   C114 - H165  
   320    358   1    1.0969e-01    2.7665e+05 ;   C117 - H171  
   320    359   1    1.0969e-01    2.7665e+05 ;   C117 - H174  
   320    360   1    1.0969e-01    2.7665e+05 ;   C117 - H177  
   321    361   1    1.0969e-01    2.7665e+05 ;   C120 - H180  
   321    362   1    1.0969e-01    2.7665e+05 ;   C120 - H183  
   321    363   1    1.0969e-01    2.7665e+05 ;   C120 - H186  
   322    364   1    1.0969e-01    2.7665e+05 ;   C123 - H189  
   322    365   1    1.0969e-01    2.7665e+05 ;   C123 - H192  
   322    366   1    1.0969e-01    2.7665e+05 ;   C123 - H195  
   323    367   1    1.0969e-01    2.7665e+05 ;   C126 - H198  
   323    368   1    1.0969e-01    2.7665e+05 ;   C126 - H201  
   323    369   1    1.0969e-01    2.7665e+05 ;   C126 - H204  
   324    370   1    1.0969e-01    2.7665e+05 ;   C129 - H207  
   324    371   1    1.0969e-01    2.7665e+05 ;   C129 - H210  
   324    372   1    1.0969e-01    2.7665e+05 ;   C129 - H213  

[ pairs ]
;   ai     aj    funct
     1      7      1 ;     C1 - C4    
     1     13      1 ;     C1 - C10   
     1     28      1 ;     C1 - C25   
     1     31      1 ;     C1 - C28   
     1     32      1 ;     C1 - C29   
     1    126      1 ;     C1 - H32   
     2      7      1 ;     O1 - C4    
     2     31      1 ;     O1 - C28   
     2     32      1 ;     O1 - C29   
     3      8      1 ;     C2 - C5    
     3     10      1 ;     C2 - C7    
     3     97      1 ;     C2 - H3    
     3    101      1 ;     C2 - H7    
     3    102      1 ;     C2 - H8    
     3    133      1 ;     C2 - H39   
     3    134      1 ;     C2 - H40   
     3    135      1 ;     C2 - H41   
     3    136      1 ;     C2 - H42   
     3    137      1 ;     C2 - H43   
     3    138      1 ;     C2 - H44   
     4     19      1 ;     N1 - C16   
     4     21      1 ;     N1 - C18   
     4     22      1 ;     N1 - C19   
     4     37      1 ;     N1 - O13   
     4    145      1 ;     N1 - H82   
     4    146      1 ;     N1 - H85   
     5     11      1 ;     C3 - C8    
     5     13      1 ;     C3 - C10   
     5     28      1 ;     C3 - C25   
     5    103      1 ;     C3 - H9    
     5    104      1 ;     C3 - H10   
     5    126      1 ;     C3 - H32   
     6     19      1 ;     O3 - C16   
     6     21      1 ;     O3 - C18   
     6     22      1 ;     O3 - C19   
     6     34      1 ;     O3 - C39   
     6    142      1 ;     O3 - H71   
     7     12      1 ;     C4 - C9    
     7     17      1 ;     C4 - C14   
     7     96      1 ;     C4 - H2    
     7    100      1 ;     C4 - H6    
     7    101      1 ;     C4 - H7    
     7    102      1 ;     C4 - H8    
     7    105      1 ;     C4 - H11   
     7    106      1 ;     C4 - H12   
     7    123      1 ;     C4 - H29   
     7    124      1 ;     C4 - H30   
     7    125      1 ;     C4 - H31   
     7    133      1 ;     C4 - H39   
     7    134      1 ;     C4 - H40   
     7    135      1 ;     C4 - H41   
     7    136      1 ;     C4 - H42   
     7    137      1 ;     C4 - H43   
     7    138      1 ;     C4 - H44   
     8     11      1 ;     C5 - C8    
     8     14      1 ;     C5 - C11   
     8     16      1 ;     C5 - C13   
     8     27      1 ;     C5 - C24   
     8     31      1 ;     C5 - C28   
     8     32      1 ;     C5 - C29   
     8    103      1 ;     C5 - H9    
     8    104      1 ;     C5 - H10   
     8    108      1 ;     C5 - H14   
     8    109      1 ;     C5 - H15   
     9      2      1 ;     C6 - O1    
     9      5      1 ;     C6 - C3    
     9     10      1 ;     C6 - C7    
     9     12      1 ;     C6 - C9    
     9     17      1 ;     C6 - C14   
     9     96      1 ;     C6 - H2    
     9     97      1 ;     C6 - H3    
     9    100      1 ;     C6 - H6    
     9    123      1 ;     C6 - H29   
     9    124      1 ;     C6 - H30   
     9    125      1 ;     C6 - H31   
    10     13      1 ;     C7 - C10   
    10     14      1 ;     C7 - C11   
    10     27      1 ;     C7 - C24   
    10     28      1 ;     C7 - C25   
    10     31      1 ;     C7 - C28   
    10     32      1 ;     C7 - C29   
    11     15      1 ;     C8 - C12   
    11     17      1 ;     C8 - C14   
    11     18      1 ;     C8 - C15   
    11     30      1 ;     C8 - C27   
    11     96      1 ;     C8 - H2    
    11     97      1 ;     C8 - H3    
    11    120      1 ;     C8 - H26   
    11    121      1 ;     C8 - H27   
    11    122      1 ;     C8 - H28   
    12     16      1 ;     C9 - C13   
    12     19      1 ;     C9 - C16   
    12     21      1 ;     C9 - C18   
    12     28      1 ;     C9 - C25   
    12    103      1 ;     C9 - H9    
    12    104      1 ;     C9 - H10   
    12    108      1 ;     C9 - H14   
    12    109      1 ;     C9 - H15   
    12    110      1 ;     C9 - H16   
    12    111      1 ;     C9 - H17   
    12    130      1 ;     C9 - H36   
    12    131      1 ;     C9 - H37   
    12    132      1 ;     C9 - H38   
    13     15      1 ;    C10 - C12   
    13     18      1 ;    C10 - C15   
    13     30      1 ;    C10 - C27   
    13     97      1 ;    C10 - H3    
    13    101      1 ;    C10 - H7    
    13    102      1 ;    C10 - H8    
    13    105      1 ;    C10 - H11   
    13    106      1 ;    C10 - H12   
    13    107      1 ;    C10 - H13   
    13    120      1 ;    C10 - H26   
    13    121      1 ;    C10 - H27   
    13    122      1 ;    C10 - H28   
    13    123      1 ;    C10 - H29   
    13    124      1 ;    C10 - H30   
    13    125      1 ;    C10 - H31   
    14     17      1 ;    C11 - C14   
    14     20      1 ;    C11 - C17   
    14     25      1 ;    C11 - C22   
    14     95      1 ;    C11 - H1    
    14     96      1 ;    C11 - H2    
    14    105      1 ;    C11 - H11   
    14    106      1 ;    C11 - H12   
    14    107      1 ;    C11 - H13   
    14    112      1 ;    C11 - H18   
    14    113      1 ;    C11 - H19   
    14    120      1 ;    C11 - H26   
    14    121      1 ;    C11 - H27   
    14    122      1 ;    C11 - H28   
    15     19      1 ;    C12 - C16   
    15     22      1 ;    C12 - C19   
    15     24      1 ;    C12 - C21   
    15     26      1 ;    C12 - C23   
    15     27      1 ;    C12 - C24   
    15    108      1 ;    C12 - H14   
    15    109      1 ;    C12 - H15   
    15    110      1 ;    C12 - H16   
    15    111      1 ;    C12 - H17   
    15    118      1 ;    C12 - H24   
    15    119      1 ;    C12 - H25   
    15    130      1 ;    C12 - H36   
    15    131      1 ;    C12 - H37   
    15    132      1 ;    C12 - H38   
    16     18      1 ;    C13 - C15   
    16     20      1 ;    C13 - C17   
    16     25      1 ;    C13 - C22   
    16     30      1 ;    C13 - C27   
    16     95      1 ;    C13 - H1    
    16     96      1 ;    C13 - H2    
    17     21      1 ;    C14 - C18   
    17     27      1 ;    C14 - C24   
    17     28      1 ;    C14 - C25   
    18     21      1 ;    C15 - C18   
    18     22      1 ;    C15 - C19   
    18     26      1 ;    C15 - C23   
    18     27      1 ;    C15 - C24   
    18    130      1 ;    C15 - H36   
    18    131      1 ;    C15 - H37   
    18    132      1 ;    C15 - H38   
    19     23      1 ;    C16 - C20   
    19     25      1 ;    C16 - C22   
    19     30      1 ;    C16 - C27   
    19     95      1 ;    C16 - H1    
    19    114      1 ;    C16 - H20   
    19    115      1 ;    C16 - H21   
    20     24      1 ;    C17 - C21   
    20     34      1 ;    C17 - C39   
    20    110      1 ;    C17 - H16   
    20    111      1 ;    C17 - H17   
    20    116      1 ;    C17 - H22   
    20    117      1 ;    C17 - H23   
    20    118      1 ;    C17 - H24   
    20    119      1 ;    C17 - H25   
    20    142      1 ;    C17 - H71   
    21     23      1 ;    C18 - C20   
    21     29      1 ;    C18 - C26   
    21     30      1 ;    C18 - C27   
    21     33      1 ;    C18 - C30   
    21    107      1 ;    C18 - H13   
    21    112      1 ;    C18 - H18   
    21    113      1 ;    C18 - H19   
    21    114      1 ;    C18 - H20   
    21    115      1 ;    C18 - H21   
    22     25      1 ;    C19 - C22   
    22     29      1 ;    C19 - C26   
    22     33      1 ;    C19 - C30   
    22     95      1 ;    C19 - H1    
    22    112      1 ;    C19 - H18   
    22    113      1 ;    C19 - H19   
    23     26      1 ;    C20 - C23   
    23    118      1 ;    C20 - H24   
    23    119      1 ;    C20 - H25   
    23    127      1 ;    C20 - H33   
    23    128      1 ;    C20 - H34   
    23    129      1 ;    C20 - H35   
    23    139      1 ;    C20 - H45   
    23    140      1 ;    C20 - H46   
    23    141      1 ;    C20 - H47   
    24     95      1 ;    C21 - H1    
    24    114      1 ;    C21 - H20   
    24    115      1 ;    C21 - H21   
    25     26      1 ;    C22 - C23   
    25    116      1 ;    C22 - H22   
    25    117      1 ;    C22 - H23   
    25    127      1 ;    C22 - H33   
    25    128      1 ;    C22 - H34   
    25    129      1 ;    C22 - H35   
    25    139      1 ;    C22 - H45   
    25    140      1 ;    C22 - H46   
    25    141      1 ;    C22 - H47   
    26     36      1 ;    C23 - C43   
    26     95      1 ;    C23 - H1    
    26    112      1 ;    C23 - H18   
    26    113      1 ;    C23 - H19   
    26    114      1 ;    C23 - H20   
    26    115      1 ;    C23 - H21   
    26    143      1 ;    C23 - H76   
    26    144      1 ;    C23 - H79   
    27     30      1 ;    C24 - C27   
    27     96      1 ;    C24 - H2    
    27    105      1 ;    C24 - H11   
    27    106      1 ;    C24 - H12   
    28     96      1 ;    C25 - H2    
    28     97      1 ;    C25 - H3    
    28    101      1 ;    C25 - H7    
    28    102      1 ;    C25 - H8    
    29    116      1 ;    C26 - H22   
    29    117      1 ;    C26 - H23   
    29    118      1 ;    C26 - H24   
    29    119      1 ;    C26 - H25   
    29    139      1 ;    C26 - H45   
    29    140      1 ;    C26 - H46   
    29    141      1 ;    C26 - H47   
    30    110      1 ;    C27 - H16   
    30    111      1 ;    C27 - H17   
    31     97      1 ;    C28 - H3    
    31    100      1 ;    C28 - H6    
    31    136      1 ;    C28 - H42   
    31    137      1 ;    C28 - H43   
    31    138      1 ;    C28 - H44   
    32     97      1 ;    C29 - H3    
    32    100      1 ;    C29 - H6    
    32    133      1 ;    C29 - H39   
    32    134      1 ;    C29 - H40   
    32    135      1 ;    C29 - H41   
    33    116      1 ;    C30 - H22   
    33    117      1 ;    C30 - H23   
    33    118      1 ;    C30 - H24   
    33    119      1 ;    C30 - H25   
    33    127      1 ;    C30 - H33   
    33    128      1 ;    C30 - H34   
    33    129      1 ;    C30 - H35   
    34     38      1 ;    C39 - C46   
    35     92      1 ;     N2 - O12   
    35    208      1 ;     N2 - H67   
    35    209      1 ;     N2 - H68   
    35    229      1 ;     N2 - C86   
    35    231      1 ;     N2 - C92   
    35    232      1 ;     N2 - C95   
    36     39      1 ;    C43 - C49   
    36    142      1 ;    C43 - H71   
    36    147      1 ;    C43 - H88   
    36    148      1 ;    C43 - H91   
    37     40      1 ;    O13 - O2    
    37    143      1 ;    O13 - H76   
    37    144      1 ;    O13 - H79   
    37    149      1 ;    O13 - H94   
    37    150      1 ;    O13 - H97   
    38     41      1 ;    C46 - C52   
    38    145      1 ;    C46 - H82   
    38    146      1 ;    C46 - H85   
    39     42      1 ;    C49 - C55   
    39    151      1 ;    C49 - H100  
    39    152      1 ;    C49 - H103  
    40     43      1 ;     O2 - O16   
    40    147      1 ;     O2 - H88   
    40    148      1 ;     O2 - H91   
    40    153      1 ;     O2 - H106  
    40    154      1 ;     O2 - H109  
    41     44      1 ;    C52 - C58   
    41    149      1 ;    C52 - H94   
    41    150      1 ;    C52 - H97   
    42     45      1 ;    C55 - C61   
    42    155      1 ;    C55 - H112  
    42    156      1 ;    C55 - H115  
    43     46      1 ;    O16 - O4    
    43    151      1 ;    O16 - H100  
    43    152      1 ;    O16 - H103  
    43    157      1 ;    O16 - H118  
    43    158      1 ;    O16 - H121  
    44     47      1 ;    C58 - C64   
    44    153      1 ;    C58 - H106  
    44    154      1 ;    C58 - H109  
    45     48      1 ;    C61 - C67   
    45    159      1 ;    C61 - H124  
    45    160      1 ;    C61 - H127  
    46     49      1 ;     O4 - N3    
    46    155      1 ;     O4 - H112  
    46    156      1 ;     O4 - H115  
    46    161      1 ;     O4 - H130  
    46    162      1 ;     O4 - H133  
    47     50      1 ;    C64 - N4    
    47     52      1 ;    C64 - C70   
    47    157      1 ;    C64 - H118  
    47    158      1 ;    C64 - H121  
    48     51      1 ;    C67 - N5    
    48     53      1 ;    C67 - C73   
    48    163      1 ;    C67 - H136  
    49     54      1 ;     N3 - C76   
    49    159      1 ;     N3 - H124  
    49    160      1 ;     N3 - H127  
    50     54      1 ;     N4 - C76   
    50    161      1 ;     N4 - H130  
    50    162      1 ;     N4 - H133  
    50    163      1 ;     N4 - H136  
    51     74      1 ;     N5 - N9    
    51    163      1 ;     N5 - H136  
    51    187      1 ;     N5 - H208  
    51    188      1 ;     N5 - H211  
    52     74      1 ;    C70 - N9    
    52    161      1 ;    C70 - H130  
    52    162      1 ;    C70 - H133  
    52    187      1 ;    C70 - H208  
    52    188      1 ;    C70 - H211  
    53     55      1 ;    C73 - C79   
    53     75      1 ;    C73 - C115  
    54     56      1 ;    C76 - C82   
    54     76      1 ;    C76 - C118  
    54    163      1 ;    C76 - H136  
    54    164      1 ;    C76 - H139  
    54    165      1 ;    C76 - H142  
    54    189      1 ;    C76 - H48   
    54    190      1 ;    C76 - H49   
    55     59      1 ;    C79 - N7    
    55     60      1 ;    C79 - N8    
    55     76      1 ;    C79 - C118  
    55    166      1 ;    C79 - H145  
    55    187      1 ;    C79 - H208  
    55    188      1 ;    C79 - H211  
    55    189      1 ;    C79 - H48   
    55    190      1 ;    C79 - H49   
    56     61      1 ;    C82 - C88   
    56     75      1 ;    C82 - C115  
    57     62      1 ;    C85 - C91   
    57     74      1 ;    C85 - N9    
    57    164      1 ;    C85 - H139  
    57    165      1 ;    C85 - H142  
    57    167      1 ;    C85 - H148  
    57    168      1 ;    C85 - H151  
    58     61      1 ;     N6 - C88   
    58     74      1 ;     N6 - N9    
    58    164      1 ;     N6 - H139  
    58    165      1 ;     N6 - H142  
    58    166      1 ;     N6 - H145  
    59     62      1 ;     N7 - C91   
    59    166      1 ;     N7 - H145  
    59    167      1 ;     N7 - H148  
    59    168      1 ;     N7 - H151  
    60     63      1 ;     N8 - O5    
    60    169      1 ;     N8 - H154  
    60    170      1 ;     N8 - H157  
    61     64      1 ;    C88 - C94   
    61    166      1 ;    C88 - H145  
    62     65      1 ;    C91 - C97   
    62    171      1 ;    C91 - H160  
    62    172      1 ;    C91 - H163  
    63     66      1 ;     O5 - O6    
    63    167      1 ;     O5 - H148  
    63    168      1 ;     O5 - H151  
    63    173      1 ;     O5 - H166  
    63    174      1 ;     O5 - H169  
    64     67      1 ;    C94 - C100  
    64    169      1 ;    C94 - H154  
    64    170      1 ;    C94 - H157  
    65     68      1 ;    C97 - C103  
    65    175      1 ;    C97 - H172  
    65    176      1 ;    C97 - H175  
    66     69      1 ;     O6 - O7    
    66    171      1 ;     O6 - H160  
    66    172      1 ;     O6 - H163  
    66    177      1 ;     O6 - H178  
    66    178      1 ;     O6 - H181  
    67     70      1 ;   C100 - C106  
    67    173      1 ;   C100 - H166  
    67    174      1 ;   C100 - H169  
    68     71      1 ;   C103 - C109  
    68    179      1 ;   C103 - H184  
    68    180      1 ;   C103 - H187  
    69     72      1 ;     O7 - O8    
    69    175      1 ;     O7 - H172  
    69    176      1 ;     O7 - H175  
    69    181      1 ;     O7 - H190  
    69    182      1 ;     O7 - H193  
    70     73      1 ;   C106 - C112  
    70    177      1 ;   C106 - H178  
    70    178      1 ;   C106 - H181  
    71    183      1 ;   C109 - H196  
    71    184      1 ;   C109 - H199  
    71    325      1 ;   C109 - C42   
    72    179      1 ;     O8 - H184  
    72    180      1 ;     O8 - H187  
    72    185      1 ;     O8 - H202  
    72    186      1 ;     O8 - H205  
    72    295      1 ;     O8 - N13   
    73    181      1 ;   C112 - H190  
    73    182      1 ;   C112 - H193  
    73    317      1 ;   C112 - C108  
    73    373      1 ;   C112 - H75   
    74     77      1 ;     N9 - C121  
    74     78      1 ;     N9 - N10   
    75     79      1 ;   C115 - N11   
    75     80      1 ;   C115 - N12   
    75    164      1 ;   C115 - H139  
    75    165      1 ;   C115 - H142  
    75    187      1 ;   C115 - H208  
    75    188      1 ;   C115 - H211  
    75    191      1 ;   C115 - H50   
    76     81      1 ;   C118 - C124  
    77     82      1 ;   C121 - C127  
    77    189      1 ;   C121 - H48   
    77    190      1 ;   C121 - H49   
    77    192      1 ;   C121 - H51   
    77    193      1 ;   C121 - H52   
    78     81      1 ;    N10 - C124  
    78    189      1 ;    N10 - H48   
    78    190      1 ;    N10 - H49   
    78    191      1 ;    N10 - H50   
    79     82      1 ;    N11 - C127  
    79    191      1 ;    N11 - H50   
    79    192      1 ;    N11 - H51   
    79    193      1 ;    N11 - H52   
    80     83      1 ;    N12 - O9    
    80    194      1 ;    N12 - H53   
    80    195      1 ;    N12 - H54   
    81     84      1 ;   C124 - C31   
    81    191      1 ;   C124 - H50   
    82     85      1 ;   C127 - C32   
    82    196      1 ;   C127 - H55   
    82    197      1 ;   C127 - H56   
    83     86      1 ;     O9 - O10   
    83    192      1 ;     O9 - H51   
    83    193      1 ;     O9 - H52   
    83    198      1 ;     O9 - H57   
    83    199      1 ;     O9 - H58   
    84     87      1 ;    C31 - C33   
    84    194      1 ;    C31 - H53   
    84    195      1 ;    C31 - H54   
    85     88      1 ;    C32 - C34   
    85    200      1 ;    C32 - H59   
    85    201      1 ;    C32 - H60   
    86     89      1 ;    O10 - O11   
    86    196      1 ;    O10 - H55   
    86    197      1 ;    O10 - H56   
    86    202      1 ;    O10 - H61   
    86    203      1 ;    O10 - H62   
    87     90      1 ;    C33 - C35   
    87    198      1 ;    C33 - H57   
    87    199      1 ;    C33 - H58   
    88     91      1 ;    C34 - C36   
    88    204      1 ;    C34 - H63   
    88    205      1 ;    C34 - H64   
    89     92      1 ;    O11 - O12   
    89    200      1 ;    O11 - H59   
    89    201      1 ;    O11 - H60   
    89    206      1 ;    O11 - H65   
    89    207      1 ;    O11 - H66   
    90     93      1 ;    C35 - C37   
    90    202      1 ;    C35 - H61   
    90    203      1 ;    C35 - H62   
    91     94      1 ;    C36 - C38   
    91    208      1 ;    C36 - H67   
    91    209      1 ;    C36 - H68   
    92    204      1 ;    O12 - H63   
    92    205      1 ;    O12 - H64   
    92    210      1 ;    O12 - H69   
    92    211      1 ;    O12 - H70   
    93    206      1 ;    C37 - H65   
    93    207      1 ;    C37 - H66   
    93    236      1 ;    C37 - C107  
    93    291      1 ;    C37 - H73   
    94    216      1 ;    C38 - O17   
    94    230      1 ;    C38 - C89   
    95    118      1 ;     H1 - H24   
    95    119      1 ;     H1 - H25   
    96    108      1 ;     H2 - H14   
    96    109      1 ;     H2 - H15   
    97    103      1 ;     H3 - H9    
    97    104      1 ;     H3 - H10   
    98      2      1 ;     H4 - O1    
    98      5      1 ;     H4 - C3    
    98      8      1 ;     H4 - C5    
    98    100      1 ;     H4 - H6    
    98    101      1 ;     H4 - H7    
    98    102      1 ;     H4 - H8    
    99      2      1 ;     H5 - O1    
    99      5      1 ;     H5 - C3    
    99      8      1 ;     H5 - C5    
    99    100      1 ;     H5 - H6    
    99    101      1 ;     H5 - H7    
    99    102      1 ;     H5 - H8    
   100    126      1 ;     H6 - H32   
   103    105      1 ;     H9 - H11   
   103    106      1 ;     H9 - H12   
   104    105      1 ;    H10 - H11   
   104    106      1 ;    H10 - H12   
   107    108      1 ;    H13 - H14   
   107    109      1 ;    H13 - H15   
   110    112      1 ;    H16 - H18   
   110    113      1 ;    H16 - H19   
   111    112      1 ;    H17 - H18   
   111    113      1 ;    H17 - H19   
   114    116      1 ;    H20 - H22   
   114    117      1 ;    H20 - H23   
   115    116      1 ;    H21 - H22   
   115    117      1 ;    H21 - H23   
   142    143      1 ;    H71 - H76   
   142    144      1 ;    H71 - H79   
   143    145      1 ;    H76 - H82   
   143    146      1 ;    H76 - H85   
   144    145      1 ;    H79 - H82   
   144    146      1 ;    H79 - H85   
   147    149      1 ;    H88 - H94   
   147    150      1 ;    H88 - H97   
   148    149      1 ;    H91 - H94   
   148    150      1 ;    H91 - H97   
   151    153      1 ;   H100 - H106  
   151    154      1 ;   H100 - H109  
   152    153      1 ;   H103 - H106  
   152    154      1 ;   H103 - H109  
   155    157      1 ;   H112 - H118  
   155    158      1 ;   H112 - H121  
   156    157      1 ;   H115 - H118  
   156    158      1 ;   H115 - H121  
   159    161      1 ;   H124 - H130  
   159    162      1 ;   H124 - H133  
   160    161      1 ;   H127 - H130  
   160    162      1 ;   H127 - H133  
   167    169      1 ;   H148 - H154  
   167    170      1 ;   H148 - H157  
   168    169      1 ;   H151 - H154  
   168    170      1 ;   H151 - H157  
   171    173      1 ;   H160 - H166  
   171    174      1 ;   H160 - H169  
   172    173      1 ;   H163 - H166  
   172    174      1 ;   H163 - H169  
   175    177      1 ;   H172 - H178  
   175    178      1 ;   H172 - H181  
   176    177      1 ;   H175 - H178  
   176    178      1 ;   H175 - H181  
   179    181      1 ;   H184 - H190  
   179    182      1 ;   H184 - H193  
   180    181      1 ;   H187 - H190  
   180    182      1 ;   H187 - H193  
   183    185      1 ;   H196 - H202  
   183    186      1 ;   H196 - H205  
   183    295      1 ;   H196 - N13   
   184    185      1 ;   H199 - H202  
   184    186      1 ;   H199 - H205  
   184    295      1 ;   H199 - N13   
   185    317      1 ;   H202 - C108  
   185    373      1 ;   H202 - H75   
   186    317      1 ;   H205 - C108  
   186    373      1 ;   H205 - H75   
   192    194      1 ;    H51 - H53   
   192    195      1 ;    H51 - H54   
   193    194      1 ;    H52 - H53   
   193    195      1 ;    H52 - H54   
   196    198      1 ;    H55 - H57   
   196    199      1 ;    H55 - H58   
   197    198      1 ;    H56 - H57   
   197    199      1 ;    H56 - H58   
   200    202      1 ;    H59 - H61   
   200    203      1 ;    H59 - H62   
   201    202      1 ;    H60 - H61   
   201    203      1 ;    H60 - H62   
   204    206      1 ;    H63 - H65   
   204    207      1 ;    H63 - H66   
   205    206      1 ;    H64 - H65   
   205    207      1 ;    H64 - H66   
   208    210      1 ;    H67 - H69   
   208    211      1 ;    H67 - H70   
   209    210      1 ;    H68 - H69   
   209    211      1 ;    H68 - H70   
   210    236      1 ;    H69 - C107  
   210    291      1 ;    H69 - H73   
   211    236      1 ;    H70 - C107  
   211    291      1 ;    H70 - H73   
   212    217      1 ;    C40 - C50   
   212    223      1 ;    C40 - C68   
   212    238      1 ;    C40 - C113  
   212    241      1 ;    C40 - C122  
   212    242      1 ;    C40 - C125  
   212    275      1 ;    C40 - H167  
   213    217      1 ;    O14 - C50   
   213    219      1 ;    O14 - C56   
   213    241      1 ;    O14 - C122  
   213    242      1 ;    O14 - C125  
   213    247      1 ;    O14 - H83   
   213    248      1 ;    O14 - H86   
   214    218      1 ;    C44 - C53   
   214    220      1 ;    C44 - C59   
   214    246      1 ;    C44 - H80   
   214    250      1 ;    C44 - H92   
   214    251      1 ;    C44 - H95   
   214    282      1 ;    C44 - H188  
   214    283      1 ;    C44 - H191  
   214    284      1 ;    C44 - H194  
   214    285      1 ;    C44 - H197  
   214    286      1 ;    C44 - H200  
   214    287      1 ;    C44 - H203  
   215    219      1 ;    C47 - C56   
   215    221      1 ;    C47 - C62   
   215    223      1 ;    C47 - C68   
   215    238      1 ;    C47 - C113  
   215    247      1 ;    C47 - H83   
   215    248      1 ;    C47 - H86   
   215    252      1 ;    C47 - H98   
   215    253      1 ;    C47 - H101  
   215    275      1 ;    C47 - H167  
   216    229      1 ;    O17 - C86   
   216    231      1 ;    O17 - C92   
   216    232      1 ;    O17 - C95   
   216    291      1 ;    O17 - H73   
   217    222      1 ;    C50 - C65   
   217    227      1 ;    C50 - C80   
   217    245      1 ;    C50 - H77   
   217    249      1 ;    C50 - H89   
   217    250      1 ;    C50 - H92   
   217    251      1 ;    C50 - H95   
   217    254      1 ;    C50 - H104  
   217    255      1 ;    C50 - H107  
   217    272      1 ;    C50 - H158  
   217    273      1 ;    C50 - H161  
   217    274      1 ;    C50 - H164  
   217    282      1 ;    C50 - H188  
   217    283      1 ;    C50 - H191  
   217    284      1 ;    C50 - H194  
   217    285      1 ;    C50 - H197  
   217    286      1 ;    C50 - H200  
   217    287      1 ;    C50 - H203  
   218    221      1 ;    C53 - C62   
   218    224      1 ;    C53 - C71   
   218    226      1 ;    C53 - C77   
   218    237      1 ;    C53 - C110  
   218    241      1 ;    C53 - C122  
   218    242      1 ;    C53 - C125  
   218    247      1 ;    C53 - H83   
   218    248      1 ;    C53 - H86   
   218    252      1 ;    C53 - H98   
   218    253      1 ;    C53 - H101  
   218    257      1 ;    C53 - H113  
   218    258      1 ;    C53 - H116  
   219    220      1 ;    C56 - C59   
   219    222      1 ;    C56 - C65   
   219    227      1 ;    C56 - C80   
   219    245      1 ;    C56 - H77   
   219    246      1 ;    C56 - H80   
   219    249      1 ;    C56 - H89   
   219    272      1 ;    C56 - H158  
   219    273      1 ;    C56 - H161  
   219    274      1 ;    C56 - H164  
   220    223      1 ;    C59 - C68   
   220    224      1 ;    C59 - C71   
   220    237      1 ;    C59 - C110  
   220    238      1 ;    C59 - C113  
   220    241      1 ;    C59 - C122  
   220    242      1 ;    C59 - C125  
   221    225      1 ;    C62 - C74   
   221    227      1 ;    C62 - C80   
   221    228      1 ;    C62 - C83   
   221    240      1 ;    C62 - C119  
   221    245      1 ;    C62 - H77   
   221    246      1 ;    C62 - H80   
   221    269      1 ;    C62 - H149  
   221    270      1 ;    C62 - H152  
   221    271      1 ;    C62 - H155  
   222    226      1 ;    C65 - C77   
   222    229      1 ;    C65 - C86   
   222    231      1 ;    C65 - C92   
   222    238      1 ;    C65 - C113  
   222    252      1 ;    C65 - H98   
   222    253      1 ;    C65 - H101  
   222    257      1 ;    C65 - H113  
   222    258      1 ;    C65 - H116  
   222    259      1 ;    C65 - H119  
   222    260      1 ;    C65 - H122  
   222    279      1 ;    C65 - H179  
   222    280      1 ;    C65 - H182  
   222    281      1 ;    C65 - H185  
   223    225      1 ;    C68 - C74   
   223    228      1 ;    C68 - C83   
   223    240      1 ;    C68 - C119  
   223    246      1 ;    C68 - H80   
   223    250      1 ;    C68 - H92   
   223    251      1 ;    C68 - H95   
   223    254      1 ;    C68 - H104  
   223    255      1 ;    C68 - H107  
   223    256      1 ;    C68 - H110  
   223    269      1 ;    C68 - H149  
   223    270      1 ;    C68 - H152  
   223    271      1 ;    C68 - H155  
   223    272      1 ;    C68 - H158  
   223    273      1 ;    C68 - H161  
   223    274      1 ;    C68 - H164  
   224    227      1 ;    C71 - C80   
   224    230      1 ;    C71 - C89   
   224    235      1 ;    C71 - C104  
   224    244      1 ;    C71 - H72   
   224    245      1 ;    C71 - H77   
   224    254      1 ;    C71 - H104  
   224    255      1 ;    C71 - H107  
   224    256      1 ;    C71 - H110  
   224    261      1 ;    C71 - H125  
   224    262      1 ;    C71 - H128  
   224    269      1 ;    C71 - H149  
   224    270      1 ;    C71 - H152  
   224    271      1 ;    C71 - H155  
   225    229      1 ;    C74 - C86   
   225    232      1 ;    C74 - C95   
   225    234      1 ;    C74 - C101  
   225    236      1 ;    C74 - C107  
   225    237      1 ;    C74 - C110  
   225    257      1 ;    C74 - H113  
   225    258      1 ;    C74 - H116  
   225    259      1 ;    C74 - H119  
   225    260      1 ;    C74 - H122  
   225    267      1 ;    C74 - H143  
   225    268      1 ;    C74 - H146  
   225    279      1 ;    C74 - H179  
   225    280      1 ;    C74 - H182  
   225    281      1 ;    C74 - H185  
   226    228      1 ;    C77 - C83   
   226    230      1 ;    C77 - C89   
   226    235      1 ;    C77 - C104  
   226    240      1 ;    C77 - C119  
   226    244      1 ;    C77 - H72   
   226    245      1 ;    C77 - H77   
   227    231      1 ;    C80 - C92   
   227    237      1 ;    C80 - C110  
   227    238      1 ;    C80 - C113  
   228    231      1 ;    C83 - C92   
   228    232      1 ;    C83 - C95   
   228    236      1 ;    C83 - C107  
   228    237      1 ;    C83 - C110  
   228    279      1 ;    C83 - H179  
   228    280      1 ;    C83 - H182  
   228    281      1 ;    C83 - H185  
   229    233      1 ;    C86 - C98   
   229    235      1 ;    C86 - C104  
   229    240      1 ;    C86 - C119  
   229    244      1 ;    C86 - H72   
   229    263      1 ;    C86 - H131  
   229    264      1 ;    C86 - H134  
   230    234      1 ;    C89 - C101  
   230    259      1 ;    C89 - H119  
   230    260      1 ;    C89 - H122  
   230    265      1 ;    C89 - H137  
   230    266      1 ;    C89 - H140  
   230    267      1 ;    C89 - H143  
   230    268      1 ;    C89 - H146  
   230    291      1 ;    C89 - H73   
   231    233      1 ;    C92 - C98   
   231    239      1 ;    C92 - C116  
   231    240      1 ;    C92 - C119  
   231    243      1 ;    C92 - C128  
   231    256      1 ;    C92 - H110  
   231    261      1 ;    C92 - H125  
   231    262      1 ;    C92 - H128  
   231    263      1 ;    C92 - H131  
   231    264      1 ;    C92 - H134  
   232    235      1 ;    C95 - C104  
   232    239      1 ;    C95 - C116  
   232    243      1 ;    C95 - C128  
   232    244      1 ;    C95 - H72   
   232    261      1 ;    C95 - H125  
   232    262      1 ;    C95 - H128  
   233    236      1 ;    C98 - C107  
   233    267      1 ;    C98 - H143  
   233    268      1 ;    C98 - H146  
   233    276      1 ;    C98 - H170  
   233    277      1 ;    C98 - H173  
   233    278      1 ;    C98 - H176  
   233    288      1 ;    C98 - H206  
   233    289      1 ;    C98 - H209  
   233    290      1 ;    C98 - H212  
   234    244      1 ;   C101 - H72   
   234    263      1 ;   C101 - H131  
   234    264      1 ;   C101 - H134  
   235    236      1 ;   C104 - C107  
   235    265      1 ;   C104 - H137  
   235    266      1 ;   C104 - H140  
   235    276      1 ;   C104 - H170  
   235    277      1 ;   C104 - H173  
   235    278      1 ;   C104 - H176  
   235    288      1 ;   C104 - H206  
   235    289      1 ;   C104 - H209  
   235    290      1 ;   C104 - H212  
   236    244      1 ;   C107 - H72   
   236    261      1 ;   C107 - H125  
   236    262      1 ;   C107 - H128  
   236    263      1 ;   C107 - H131  
   236    264      1 ;   C107 - H134  
   237    240      1 ;   C110 - C119  
   237    245      1 ;   C110 - H77   
   237    254      1 ;   C110 - H104  
   237    255      1 ;   C110 - H107  
   238    245      1 ;   C113 - H77   
   238    246      1 ;   C113 - H80   
   238    250      1 ;   C113 - H92   
   238    251      1 ;   C113 - H95   
   239    265      1 ;   C116 - H137  
   239    266      1 ;   C116 - H140  
   239    267      1 ;   C116 - H143  
   239    268      1 ;   C116 - H146  
   239    288      1 ;   C116 - H206  
   239    289      1 ;   C116 - H209  
   239    290      1 ;   C116 - H212  
   240    259      1 ;   C119 - H119  
   240    260      1 ;   C119 - H122  
   241    246      1 ;   C122 - H80   
   241    249      1 ;   C122 - H89   
   241    285      1 ;   C122 - H197  
   241    286      1 ;   C122 - H200  
   241    287      1 ;   C122 - H203  
   242    246      1 ;   C125 - H80   
   242    249      1 ;   C125 - H89   
   242    282      1 ;   C125 - H188  
   242    283      1 ;   C125 - H191  
   242    284      1 ;   C125 - H194  
   243    265      1 ;   C128 - H137  
   243    266      1 ;   C128 - H140  
   243    267      1 ;   C128 - H143  
   243    268      1 ;   C128 - H146  
   243    276      1 ;   C128 - H170  
   243    277      1 ;   C128 - H173  
   243    278      1 ;   C128 - H176  
   244    267      1 ;    H72 - H143  
   244    268      1 ;    H72 - H146  
   245    257      1 ;    H77 - H113  
   245    258      1 ;    H77 - H116  
   246    252      1 ;    H80 - H98   
   246    253      1 ;    H80 - H101  
   247    249      1 ;    H83 - H89   
   247    250      1 ;    H83 - H92   
   247    251      1 ;    H83 - H95   
   248    249      1 ;    H86 - H89   
   248    250      1 ;    H86 - H92   
   248    251      1 ;    H86 - H95   
   249    275      1 ;    H89 - H167  
   252    254      1 ;    H98 - H104  
   252    255      1 ;    H98 - H107  
   253    254      1 ;   H101 - H104  
   253    255      1 ;   H101 - H107  
   256    257      1 ;   H110 - H113  
   256    258      1 ;   H110 - H116  
   259    261      1 ;   H119 - H125  
   259    262      1 ;   H119 - H128  
   260    261      1 ;   H122 - H125  
   260    262      1 ;   H122 - H128  
   263    265      1 ;   H131 - H137  
   263    266      1 ;   H131 - H140  
   264    265      1 ;   H134 - H137  
   264    266      1 ;   H134 - H140  
   292    298      1 ;    C41 - C51   
   292    304      1 ;    C41 - C69   
   292    319      1 ;    C41 - C114  
   292    322      1 ;    C41 - C123  
   292    323      1 ;    C41 - C126  
   292    357      1 ;    C41 - H168  
   293    298      1 ;    O15 - C51   
   293    300      1 ;    O15 - C57   
   293    322      1 ;    O15 - C123  
   293    323      1 ;    O15 - C126  
   293    329      1 ;    O15 - H84   
   293    330      1 ;    O15 - H87   
   294    299      1 ;    C45 - C54   
   294    301      1 ;    C45 - C60   
   294    328      1 ;    C45 - H81   
   294    332      1 ;    C45 - H93   
   294    333      1 ;    C45 - H96   
   294    364      1 ;    C45 - H189  
   294    365      1 ;    C45 - H192  
   294    366      1 ;    C45 - H195  
   294    367      1 ;    C45 - H198  
   294    368      1 ;    C45 - H201  
   294    369      1 ;    C45 - H204  
   295    310      1 ;    N13 - C87   
   295    312      1 ;    N13 - C93   
   295    313      1 ;    N13 - C96   
   296    300      1 ;    C48 - C57   
   296    302      1 ;    C48 - C63   
   296    304      1 ;    C48 - C69   
   296    319      1 ;    C48 - C114  
   296    329      1 ;    C48 - H84   
   296    330      1 ;    C48 - H87   
   296    334      1 ;    C48 - H99   
   296    335      1 ;    C48 - H102  
   296    357      1 ;    C48 - H168  
   297    310      1 ;    O18 - C87   
   297    312      1 ;    O18 - C93   
   297    313      1 ;    O18 - C96   
   297    325      1 ;    O18 - C42   
   297    373      1 ;    O18 - H75   
   298    303      1 ;    C51 - C66   
   298    308      1 ;    C51 - C81   
   298    327      1 ;    C51 - H78   
   298    331      1 ;    C51 - H90   
   298    332      1 ;    C51 - H93   
   298    333      1 ;    C51 - H96   
   298    336      1 ;    C51 - H105  
   298    337      1 ;    C51 - H108  
   298    354      1 ;    C51 - H159  
   298    355      1 ;    C51 - H162  
   298    356      1 ;    C51 - H165  
   298    364      1 ;    C51 - H189  
   298    365      1 ;    C51 - H192  
   298    366      1 ;    C51 - H195  
   298    367      1 ;    C51 - H198  
   298    368      1 ;    C51 - H201  
   298    369      1 ;    C51 - H204  
   299    302      1 ;    C54 - C63   
   299    305      1 ;    C54 - C72   
   299    307      1 ;    C54 - C78   
   299    318      1 ;    C54 - C111  
   299    322      1 ;    C54 - C123  
   299    323      1 ;    C54 - C126  
   299    329      1 ;    C54 - H84   
   299    330      1 ;    C54 - H87   
   299    334      1 ;    C54 - H99   
   299    335      1 ;    C54 - H102  
   299    339      1 ;    C54 - H114  
   299    340      1 ;    C54 - H117  
   300    301      1 ;    C57 - C60   
   300    303      1 ;    C57 - C66   
   300    308      1 ;    C57 - C81   
   300    327      1 ;    C57 - H78   
   300    328      1 ;    C57 - H81   
   300    331      1 ;    C57 - H90   
   300    354      1 ;    C57 - H159  
   300    355      1 ;    C57 - H162  
   300    356      1 ;    C57 - H165  
   301    304      1 ;    C60 - C69   
   301    305      1 ;    C60 - C72   
   301    318      1 ;    C60 - C111  
   301    319      1 ;    C60 - C114  
   301    322      1 ;    C60 - C123  
   301    323      1 ;    C60 - C126  
   302    306      1 ;    C63 - C75   
   302    308      1 ;    C63 - C81   
   302    309      1 ;    C63 - C84   
   302    321      1 ;    C63 - C120  
   302    327      1 ;    C63 - H78   
   302    328      1 ;    C63 - H81   
   302    351      1 ;    C63 - H150  
   302    352      1 ;    C63 - H153  
   302    353      1 ;    C63 - H156  
   303    307      1 ;    C66 - C78   
   303    310      1 ;    C66 - C87   
   303    312      1 ;    C66 - C93   
   303    319      1 ;    C66 - C114  
   303    334      1 ;    C66 - H99   
   303    335      1 ;    C66 - H102  
   303    339      1 ;    C66 - H114  
   303    340      1 ;    C66 - H117  
   303    341      1 ;    C66 - H120  
   303    342      1 ;    C66 - H123  
   303    361      1 ;    C66 - H180  
   303    362      1 ;    C66 - H183  
   303    363      1 ;    C66 - H186  
   304    306      1 ;    C69 - C75   
   304    309      1 ;    C69 - C84   
   304    321      1 ;    C69 - C120  
   304    328      1 ;    C69 - H81   
   304    332      1 ;    C69 - H93   
   304    333      1 ;    C69 - H96   
   304    336      1 ;    C69 - H105  
   304    337      1 ;    C69 - H108  
   304    338      1 ;    C69 - H111  
   304    351      1 ;    C69 - H150  
   304    352      1 ;    C69 - H153  
   304    353      1 ;    C69 - H156  
   304    354      1 ;    C69 - H159  
   304    355      1 ;    C69 - H162  
   304    356      1 ;    C69 - H165  
   305    308      1 ;    C72 - C81   
   305    311      1 ;    C72 - C90   
   305    316      1 ;    C72 - C105  
   305    326      1 ;    C72 - H74   
   305    327      1 ;    C72 - H78   
   305    336      1 ;    C72 - H105  
   305    337      1 ;    C72 - H108  
   305    338      1 ;    C72 - H111  
   305    343      1 ;    C72 - H126  
   305    344      1 ;    C72 - H129  
   305    351      1 ;    C72 - H150  
   305    352      1 ;    C72 - H153  
   305    353      1 ;    C72 - H156  
   306    310      1 ;    C75 - C87   
   306    313      1 ;    C75 - C96   
   306    315      1 ;    C75 - C102  
   306    317      1 ;    C75 - C108  
   306    318      1 ;    C75 - C111  
   306    339      1 ;    C75 - H114  
   306    340      1 ;    C75 - H117  
   306    341      1 ;    C75 - H120  
   306    342      1 ;    C75 - H123  
   306    349      1 ;    C75 - H144  
   306    350      1 ;    C75 - H147  
   306    361      1 ;    C75 - H180  
   306    362      1 ;    C75 - H183  
   306    363      1 ;    C75 - H186  
   307    309      1 ;    C78 - C84   
   307    311      1 ;    C78 - C90   
   307    316      1 ;    C78 - C105  
   307    321      1 ;    C78 - C120  
   307    326      1 ;    C78 - H74   
   307    327      1 ;    C78 - H78   
   308    312      1 ;    C81 - C93   
   308    318      1 ;    C81 - C111  
   308    319      1 ;    C81 - C114  
   309    312      1 ;    C84 - C93   
   309    313      1 ;    C84 - C96   
   309    317      1 ;    C84 - C108  
   309    318      1 ;    C84 - C111  
   309    361      1 ;    C84 - H180  
   309    362      1 ;    C84 - H183  
   309    363      1 ;    C84 - H186  
   310    314      1 ;    C87 - C99   
   310    316      1 ;    C87 - C105  
   310    321      1 ;    C87 - C120  
   310    326      1 ;    C87 - H74   
   310    345      1 ;    C87 - H132  
   310    346      1 ;    C87 - H135  
   311    315      1 ;    C90 - C102  
   311    325      1 ;    C90 - C42   
   311    341      1 ;    C90 - H120  
   311    342      1 ;    C90 - H123  
   311    347      1 ;    C90 - H138  
   311    348      1 ;    C90 - H141  
   311    349      1 ;    C90 - H144  
   311    350      1 ;    C90 - H147  
   311    373      1 ;    C90 - H75   
   312    314      1 ;    C93 - C99   
   312    320      1 ;    C93 - C117  
   312    321      1 ;    C93 - C120  
   312    324      1 ;    C93 - C129  
   312    338      1 ;    C93 - H111  
   312    343      1 ;    C93 - H126  
   312    344      1 ;    C93 - H129  
   312    345      1 ;    C93 - H132  
   312    346      1 ;    C93 - H135  
   313    316      1 ;    C96 - C105  
   313    320      1 ;    C96 - C117  
   313    324      1 ;    C96 - C129  
   313    326      1 ;    C96 - H74   
   313    343      1 ;    C96 - H126  
   313    344      1 ;    C96 - H129  
   314    317      1 ;    C99 - C108  
   314    349      1 ;    C99 - H144  
   314    350      1 ;    C99 - H147  
   314    358      1 ;    C99 - H171  
   314    359      1 ;    C99 - H174  
   314    360      1 ;    C99 - H177  
   314    370      1 ;    C99 - H207  
   314    371      1 ;    C99 - H210  
   314    372      1 ;    C99 - H213  
   315    326      1 ;   C102 - H74   
   315    345      1 ;   C102 - H132  
   315    346      1 ;   C102 - H135  
   316    317      1 ;   C105 - C108  
   316    347      1 ;   C105 - H138  
   316    348      1 ;   C105 - H141  
   316    358      1 ;   C105 - H171  
   316    359      1 ;   C105 - H174  
   316    360      1 ;   C105 - H177  
   316    370      1 ;   C105 - H207  
   316    371      1 ;   C105 - H210  
   316    372      1 ;   C105 - H213  
   317    326      1 ;   C108 - H74   
   317    343      1 ;   C108 - H126  
   317    344      1 ;   C108 - H129  
   317    345      1 ;   C108 - H132  
   317    346      1 ;   C108 - H135  
   318    321      1 ;   C111 - C120  
   318    327      1 ;   C111 - H78   
   318    336      1 ;   C111 - H105  
   318    337      1 ;   C111 - H108  
   319    327      1 ;   C114 - H78   
   319    328      1 ;   C114 - H81   
   319    332      1 ;   C114 - H93   
   319    333      1 ;   C114 - H96   
   320    347      1 ;   C117 - H138  
   320    348      1 ;   C117 - H141  
   320    349      1 ;   C117 - H144  
   320    350      1 ;   C117 - H147  
   320    370      1 ;   C117 - H207  
   320    371      1 ;   C117 - H210  
   320    372      1 ;   C117 - H213  
   321    341      1 ;   C120 - H120  
   321    342      1 ;   C120 - H123  
   322    328      1 ;   C123 - H81   
   322    331      1 ;   C123 - H90   
   322    367      1 ;   C123 - H198  
   322    368      1 ;   C123 - H201  
   322    369      1 ;   C123 - H204  
   323    328      1 ;   C126 - H81   
   323    331      1 ;   C126 - H90   
   323    364      1 ;   C126 - H189  
   323    365      1 ;   C126 - H192  
   323    366      1 ;   C126 - H195  
   324    347      1 ;   C129 - H138  
   324    348      1 ;   C129 - H141  
   324    349      1 ;   C129 - H144  
   324    350      1 ;   C129 - H147  
   324    358      1 ;   C129 - H171  
   324    359      1 ;   C129 - H174  
   324    360      1 ;   C129 - H177  
   326    349      1 ;    H74 - H144  
   326    350      1 ;    H74 - H147  
   327    339      1 ;    H78 - H114  
   327    340      1 ;    H78 - H117  
   328    334      1 ;    H81 - H99   
   328    335      1 ;    H81 - H102  
   329    331      1 ;    H84 - H90   
   329    332      1 ;    H84 - H93   
   329    333      1 ;    H84 - H96   
   330    331      1 ;    H87 - H90   
   330    332      1 ;    H87 - H93   
   330    333      1 ;    H87 - H96   
   331    357      1 ;    H90 - H168  
   334    336      1 ;    H99 - H105  
   334    337      1 ;    H99 - H108  
   335    336      1 ;   H102 - H105  
   335    337      1 ;   H102 - H108  
   338    339      1 ;   H111 - H114  
   338    340      1 ;   H111 - H117  
   341    343      1 ;   H120 - H126  
   341    344      1 ;   H120 - H129  
   342    343      1 ;   H123 - H126  
   342    344      1 ;   H123 - H129  
   345    347      1 ;   H132 - H138  
   345    348      1 ;   H132 - H141  
   346    347      1 ;   H135 - H138  
   346    348      1 ;   H135 - H141  

[ angles ]
;   ai     aj     ak    funct   theta         cth
     1      3      2      1    1.1019e+02    5.6484e+02 ;     C1 - C2     - O1    
     1      3      5      1    1.1151e+02    5.2635e+02 ;     C1 - C2     - C3    
     1      3    100      1    1.0956e+02    3.8828e+02 ;     C1 - C2     - H6    
     1      9      8      1    1.1151e+02    5.2635e+02 ;     C1 - C6     - C5    
     1      9    101      1    1.0980e+02    3.8744e+02 ;     C1 - C6     - H7    
     1      9    102      1    1.0980e+02    3.8744e+02 ;     C1 - C6     - H8    
     2      3      5      1    1.1019e+02    5.6484e+02 ;     O1 - C2     - C3    
     2      3    100      1    1.1026e+02    4.2593e+02 ;     O1 - C2     - H6    
     3      1      9      1    1.1151e+02    5.2635e+02 ;     C2 - C1     - C6    
     3      1     98      1    1.0980e+02    3.8744e+02 ;     C2 - C1     - H4    
     3      1     99      1    1.0980e+02    3.8744e+02 ;     C2 - C1     - H5    
     3      2    126      1    1.0726e+02    3.9664e+02 ;     C2 - O1     - H32   
     3      5      7      1    1.1151e+02    5.2635e+02 ;     C2 - C3     - C4    
     3      5     31      1    1.1151e+02    5.2635e+02 ;     C2 - C3     - C28   
     3      5     32      1    1.1151e+02    5.2635e+02 ;     C2 - C3     - C29   
     4     26      6      1    1.2305e+02    6.2091e+02 ;     N1 - C23    - O3    
     4     26     20      1    1.1518e+02    5.5898e+02 ;     N1 - C23    - C17   
     4     34     36      1    1.1161e+02    5.5145e+02 ;     N1 - C39    - C43   
     4     34    143      1    1.0888e+02    4.1673e+02 ;     N1 - C39    - H76   
     4     34    144      1    1.0888e+02    4.1673e+02 ;     N1 - C39    - H79   
     5      3    100      1    1.0956e+02    3.8828e+02 ;     C3 - C2     - H6    
     5      7      8      1    1.1151e+02    5.2635e+02 ;     C3 - C4     - C5    
     5      7     10      1    1.1151e+02    5.2635e+02 ;     C3 - C4     - C7    
     5      7     97      1    1.0980e+02    3.8744e+02 ;     C3 - C4     - H3    
     5     31    133      1    1.0980e+02    3.8744e+02 ;     C3 - C28    - H39   
     5     31    134      1    1.0980e+02    3.8744e+02 ;     C3 - C28    - H40   
     5     31    135      1    1.0980e+02    3.8744e+02 ;     C3 - C28    - H41   
     5     32    136      1    1.0980e+02    3.8744e+02 ;     C3 - C29    - H42   
     5     32    137      1    1.0980e+02    3.8744e+02 ;     C3 - C29    - H43   
     5     32    138      1    1.0980e+02    3.8744e+02 ;     C3 - C29    - H44   
     6     26     20      1    1.2320e+02    5.6400e+02 ;     O3 - C23    - C17   
     7      5     31      1    1.1151e+02    5.2635e+02 ;     C4 - C3     - C28   
     7      5     32      1    1.1151e+02    5.2635e+02 ;     C4 - C3     - C29   
     7      8      9      1    1.1151e+02    5.2635e+02 ;     C4 - C5     - C6    
     7      8     13      1    1.1151e+02    5.2635e+02 ;     C4 - C5     - C10   
     7      8     28      1    1.1151e+02    5.2635e+02 ;     C4 - C5     - C25   
     7     10     11      1    1.1151e+02    5.2635e+02 ;     C4 - C7     - C8    
     7     10    103      1    1.0980e+02    3.8744e+02 ;     C4 - C7     - H9    
     7     10    104      1    1.0980e+02    3.8744e+02 ;     C4 - C7     - H10   
     8      7     10      1    1.1151e+02    5.2635e+02 ;     C5 - C4     - C7    
     8      7     97      1    1.0980e+02    3.8744e+02 ;     C5 - C4     - H3    
     8      9    101      1    1.0980e+02    3.8744e+02 ;     C5 - C6     - H7    
     8      9    102      1    1.0980e+02    3.8744e+02 ;     C5 - C6     - H8    
     8     13     12      1    1.1151e+02    5.2635e+02 ;     C5 - C10    - C9    
     8     13     17      1    1.1151e+02    5.2635e+02 ;     C5 - C10    - C14   
     8     13     96      1    1.0980e+02    3.8744e+02 ;     C5 - C10    - H2    
     8     28    123      1    1.0980e+02    3.8744e+02 ;     C5 - C25    - H29   
     8     28    124      1    1.0980e+02    3.8744e+02 ;     C5 - C25    - H30   
     8     28    125      1    1.0980e+02    3.8744e+02 ;     C5 - C25    - H31   
     9      1     98      1    1.0980e+02    3.8744e+02 ;     C6 - C1     - H4    
     9      1     99      1    1.0980e+02    3.8744e+02 ;     C6 - C1     - H5    
     9      8     13      1    1.1151e+02    5.2635e+02 ;     C6 - C5     - C10   
     9      8     28      1    1.1151e+02    5.2635e+02 ;     C6 - C5     - C25   
    10      7     97      1    1.0980e+02    3.8744e+02 ;     C7 - C4     - H3    
    10     11     12      1    1.1151e+02    5.2635e+02 ;     C7 - C8     - C9    
    10     11    105      1    1.0980e+02    3.8744e+02 ;     C7 - C8     - H11   
    10     11    106      1    1.0980e+02    3.8744e+02 ;     C7 - C8     - H12   
    11     10    103      1    1.0980e+02    3.8744e+02 ;     C8 - C7     - H9    
    11     10    104      1    1.0980e+02    3.8744e+02 ;     C8 - C7     - H10   
    11     12     13      1    1.1151e+02    5.2635e+02 ;     C8 - C9     - C10   
    11     12     14      1    1.1151e+02    5.2635e+02 ;     C8 - C9     - C11   
    11     12     27      1    1.1151e+02    5.2635e+02 ;     C8 - C9     - C24   
    12     11    105      1    1.0980e+02    3.8744e+02 ;     C9 - C8     - H11   
    12     11    106      1    1.0980e+02    3.8744e+02 ;     C9 - C8     - H12   
    12     13     17      1    1.1151e+02    5.2635e+02 ;     C9 - C10    - C14   
    12     13     96      1    1.0980e+02    3.8744e+02 ;     C9 - C10    - H2    
    12     14     15      1    1.1156e+02    5.3053e+02 ;     C9 - C11    - C12   
    12     14     18      1    1.1151e+02    5.2635e+02 ;     C9 - C11    - C15   
    12     14     30      1    1.1151e+02    5.2635e+02 ;     C9 - C11    - C27   
    12     27    120      1    1.0980e+02    3.8744e+02 ;     C9 - C24    - H26   
    12     27    121      1    1.0980e+02    3.8744e+02 ;     C9 - C24    - H27   
    12     27    122      1    1.0980e+02    3.8744e+02 ;     C9 - C24    - H28   
    13      8     28      1    1.1151e+02    5.2635e+02 ;    C10 - C5     - C25   
    13     12     14      1    1.1151e+02    5.2635e+02 ;    C10 - C9     - C11   
    13     12     27      1    1.1151e+02    5.2635e+02 ;    C10 - C9     - C24   
    13     17     16      1    1.1156e+02    5.3053e+02 ;    C10 - C14    - C13   
    13     17    108      1    1.0980e+02    3.8744e+02 ;    C10 - C14    - H14   
    13     17    109      1    1.0980e+02    3.8744e+02 ;    C10 - C14    - H15   
    14     12     27      1    1.1151e+02    5.2635e+02 ;    C11 - C9     - C24   
    14     15     16      1    1.2363e+02    5.3639e+02 ;    C11 - C12    - C13   
    14     15     21      1    1.1565e+02    5.2635e+02 ;    C11 - C12    - C18   
    14     18     19      1    1.1151e+02    5.2635e+02 ;    C11 - C15    - C16   
    14     18    110      1    1.0980e+02    3.8744e+02 ;    C11 - C15    - H16   
    14     18    111      1    1.0980e+02    3.8744e+02 ;    C11 - C15    - H17   
    14     30    130      1    1.0980e+02    3.8744e+02 ;    C11 - C27    - H36   
    14     30    131      1    1.0980e+02    3.8744e+02 ;    C11 - C27    - H37   
    14     30    132      1    1.0980e+02    3.8744e+02 ;    C11 - C27    - H38   
    15     14     18      1    1.1156e+02    5.3053e+02 ;    C12 - C11    - C15   
    15     14     30      1    1.1156e+02    5.3053e+02 ;    C12 - C11    - C27   
    15     16     17      1    1.2363e+02    5.3639e+02 ;    C12 - C13    - C14   
    15     16    107      1    1.2043e+02    4.1756e+02 ;    C12 - C13    - H13   
    15     21     20      1    1.1156e+02    5.3053e+02 ;    C12 - C18    - C17   
    15     21     25      1    1.1156e+02    5.3053e+02 ;    C12 - C18    - C22   
    15     21     95      1    1.1036e+02    3.9330e+02 ;    C12 - C18    - H1    
    16     15     21      1    1.2363e+02    5.3639e+02 ;    C13 - C12    - C18   
    16     17    108      1    1.1036e+02    3.9330e+02 ;    C13 - C14    - H14   
    16     17    109      1    1.1036e+02    3.9330e+02 ;    C13 - C14    - H15   
    17     13     96      1    1.0980e+02    3.8744e+02 ;    C14 - C10    - H2    
    17     16    107      1    1.1568e+02    3.8409e+02 ;    C14 - C13    - H13   
    18     14     30      1    1.1151e+02    5.2635e+02 ;    C15 - C11    - C27   
    18     19     20      1    1.1151e+02    5.2635e+02 ;    C15 - C16    - C17   
    18     19    112      1    1.0980e+02    3.8744e+02 ;    C15 - C16    - H18   
    18     19    113      1    1.0980e+02    3.8744e+02 ;    C15 - C16    - H19   
    19     18    110      1    1.0980e+02    3.8744e+02 ;    C16 - C15    - H16   
    19     18    111      1    1.0980e+02    3.8744e+02 ;    C16 - C15    - H17   
    19     20     21      1    1.1151e+02    5.2635e+02 ;    C16 - C17    - C18   
    19     20     22      1    1.1151e+02    5.2635e+02 ;    C16 - C17    - C19   
    19     20     26      1    1.1104e+02    5.2969e+02 ;    C16 - C17    - C23   
    20     19    112      1    1.0980e+02    3.8744e+02 ;    C17 - C16    - H18   
    20     19    113      1    1.0980e+02    3.8744e+02 ;    C17 - C16    - H19   
    20     21     25      1    1.1151e+02    5.2635e+02 ;    C17 - C18    - C22   
    20     21     95      1    1.0980e+02    3.8744e+02 ;    C17 - C18    - H1    
    20     22     23      1    1.1151e+02    5.2635e+02 ;    C17 - C19    - C20   
    20     22    114      1    1.0980e+02    3.8744e+02 ;    C17 - C19    - H20   
    20     22    115      1    1.0980e+02    3.8744e+02 ;    C17 - C19    - H21   
    21     20     22      1    1.1151e+02    5.2635e+02 ;    C18 - C17    - C19   
    21     20     26      1    1.1104e+02    5.2969e+02 ;    C18 - C17    - C23   
    21     25     24      1    1.1151e+02    5.2635e+02 ;    C18 - C22    - C21   
    21     25    118      1    1.0980e+02    3.8744e+02 ;    C18 - C22    - H24   
    21     25    119      1    1.0980e+02    3.8744e+02 ;    C18 - C22    - H25   
    22     20     26      1    1.1104e+02    5.2969e+02 ;    C19 - C17    - C23   
    22     23     24      1    1.1151e+02    5.2635e+02 ;    C19 - C20    - C21   
    22     23    116      1    1.0980e+02    3.8744e+02 ;    C19 - C20    - H22   
    22     23    117      1    1.0980e+02    3.8744e+02 ;    C19 - C20    - H23   
    23     22    114      1    1.0980e+02    3.8744e+02 ;    C20 - C19    - H20   
    23     22    115      1    1.0980e+02    3.8744e+02 ;    C20 - C19    - H21   
    23     24     25      1    1.1151e+02    5.2635e+02 ;    C20 - C21    - C22   
    23     24     29      1    1.1151e+02    5.2635e+02 ;    C20 - C21    - C26   
    23     24     33      1    1.1151e+02    5.2635e+02 ;    C20 - C21    - C30   
    24     23    116      1    1.0980e+02    3.8744e+02 ;    C21 - C20    - H22   
    24     23    117      1    1.0980e+02    3.8744e+02 ;    C21 - C20    - H23   
    24     25    118      1    1.0980e+02    3.8744e+02 ;    C21 - C22    - H24   
    24     25    119      1    1.0980e+02    3.8744e+02 ;    C21 - C22    - H25   
    24     29    127      1    1.0980e+02    3.8744e+02 ;    C21 - C26    - H33   
    24     29    128      1    1.0980e+02    3.8744e+02 ;    C21 - C26    - H34   
    24     29    129      1    1.0980e+02    3.8744e+02 ;    C21 - C26    - H35   
    24     33    139      1    1.0980e+02    3.8744e+02 ;    C21 - C30    - H45   
    24     33    140      1    1.0980e+02    3.8744e+02 ;    C21 - C30    - H46   
    24     33    141      1    1.0980e+02    3.8744e+02 ;    C21 - C30    - H47   
    25     21     95      1    1.0980e+02    3.8744e+02 ;    C22 - C18    - H1    
    25     24     29      1    1.1151e+02    5.2635e+02 ;    C22 - C21    - C26   
    25     24     33      1    1.1151e+02    5.2635e+02 ;    C22 - C21    - C30   
    26      4     34      1    1.2069e+02    5.3053e+02 ;    C23 - N1     - C39   
    26      4    142      1    1.1755e+02    4.0417e+02 ;    C23 - N1     - H71   
    29     24     33      1    1.1151e+02    5.2635e+02 ;    C26 - C21    - C30   
    31      5     32      1    1.1151e+02    5.2635e+02 ;    C28 - C3     - C29   
    34      4    142      1    1.1768e+02    3.8325e+02 ;    C39 - N1     - H71   
    34     36     37      1    1.0797e+02    5.6902e+02 ;    C39 - C43    - O13   
    34     36    145      1    1.0956e+02    3.8828e+02 ;    C39 - C43    - H82   
    34     36    146      1    1.0956e+02    3.8828e+02 ;    C39 - C43    - H85   
    35     94     93      1    1.1161e+02    5.5145e+02 ;     N2 - C38    - C37   
    35     94    210      1    1.0888e+02    4.1673e+02 ;     N2 - C38    - H69   
    35     94    211      1    1.0888e+02    4.1673e+02 ;     N2 - C38    - H70   
    35    236    216      1    1.2305e+02    6.2091e+02 ;     N2 - C107   - O17   
    35    236    230      1    1.1518e+02    5.5898e+02 ;     N2 - C107   - C89   
    36     34    143      1    1.0956e+02    3.8828e+02 ;    C43 - C39    - H76   
    36     34    144      1    1.0956e+02    3.8828e+02 ;    C43 - C39    - H79   
    36     37     38      1    1.1248e+02    5.2467e+02 ;    C43 - O13    - C46   
    37     36    145      1    1.0978e+02    4.2509e+02 ;    O13 - C43    - H82   
    37     36    146      1    1.0978e+02    4.2509e+02 ;    O13 - C43    - H85   
    37     38     39      1    1.0797e+02    5.6902e+02 ;    O13 - C46    - C49   
    37     38    147      1    1.0978e+02    4.2509e+02 ;    O13 - C46    - H88   
    37     38    148      1    1.0978e+02    4.2509e+02 ;    O13 - C46    - H91   
    38     39     40      1    1.0797e+02    5.6902e+02 ;    C46 - C49    - O2    
    38     39    149      1    1.0956e+02    3.8828e+02 ;    C46 - C49    - H94   
    38     39    150      1    1.0956e+02    3.8828e+02 ;    C46 - C49    - H97   
    39     38    147      1    1.0956e+02    3.8828e+02 ;    C49 - C46    - H88   
    39     38    148      1    1.0956e+02    3.8828e+02 ;    C49 - C46    - H91   
    39     40     41      1    1.1248e+02    5.2467e+02 ;    C49 - O2     - C52   
    40     39    149      1    1.0978e+02    4.2509e+02 ;     O2 - C49    - H94   
    40     39    150      1    1.0978e+02    4.2509e+02 ;     O2 - C49    - H97   
    40     41     42      1    1.0797e+02    5.6902e+02 ;     O2 - C52    - C55   
    40     41    151      1    1.0978e+02    4.2509e+02 ;     O2 - C52    - H100  
    40     41    152      1    1.0978e+02    4.2509e+02 ;     O2 - C52    - H103  
    41     42     43      1    1.0797e+02    5.6902e+02 ;    C52 - C55    - O16   
    41     42    153      1    1.0956e+02    3.8828e+02 ;    C52 - C55    - H106  
    41     42    154      1    1.0956e+02    3.8828e+02 ;    C52 - C55    - H109  
    42     41    151      1    1.0956e+02    3.8828e+02 ;    C55 - C52    - H100  
    42     41    152      1    1.0956e+02    3.8828e+02 ;    C55 - C52    - H103  
    42     43     44      1    1.1248e+02    5.2467e+02 ;    C55 - O16    - C58   
    43     42    153      1    1.0978e+02    4.2509e+02 ;    O16 - C55    - H106  
    43     42    154      1    1.0978e+02    4.2509e+02 ;    O16 - C55    - H109  
    43     44     45      1    1.0797e+02    5.6902e+02 ;    O16 - C58    - C61   
    43     44    155      1    1.0978e+02    4.2509e+02 ;    O16 - C58    - H112  
    43     44    156      1    1.0978e+02    4.2509e+02 ;    O16 - C58    - H115  
    44     45     46      1    1.0797e+02    5.6902e+02 ;    C58 - C61    - O4    
    44     45    157      1    1.0956e+02    3.8828e+02 ;    C58 - C61    - H118  
    44     45    158      1    1.0956e+02    3.8828e+02 ;    C58 - C61    - H121  
    45     44    155      1    1.0956e+02    3.8828e+02 ;    C61 - C58    - H112  
    45     44    156      1    1.0956e+02    3.8828e+02 ;    C61 - C58    - H115  
    45     46     47      1    1.1248e+02    5.2467e+02 ;    C61 - O4     - C64   
    46     45    157      1    1.0978e+02    4.2509e+02 ;     O4 - C61    - H118  
    46     45    158      1    1.0978e+02    4.2509e+02 ;     O4 - C61    - H121  
    46     47     48      1    1.0797e+02    5.6902e+02 ;     O4 - C64    - C67   
    46     47    159      1    1.0978e+02    4.2509e+02 ;     O4 - C64    - H124  
    46     47    160      1    1.0978e+02    4.2509e+02 ;     O4 - C64    - H127  
    47     48     49      1    1.1288e+02    5.4810e+02 ;    C64 - C67    - N3    
    47     48    161      1    1.0956e+02    3.8828e+02 ;    C64 - C67    - H130  
    47     48    162      1    1.0956e+02    3.8828e+02 ;    C64 - C67    - H133  
    48     47    159      1    1.0956e+02    3.8828e+02 ;    C67 - C64    - H124  
    48     47    160      1    1.0956e+02    3.8828e+02 ;    C67 - C64    - H127  
    48     49     50      1    1.2018e+02    5.4810e+02 ;    C67 - N3     - N4    
    48     49     52      1    1.2646e+02    5.1798e+02 ;    C67 - N3     - C70   
    49     48    161      1    1.0878e+02    4.1673e+02 ;     N3 - C67    - H130  
    49     48    162      1    1.0878e+02    4.1673e+02 ;     N3 - C67    - H133  
    49     50     51      1    1.0624e+02    6.3597e+02 ;     N3 - N4     - N5    
    49     52     53      1    1.0699e+02    6.1421e+02 ;     N3 - C70    - C73   
    49     52    163      1    1.2053e+02    4.1673e+02 ;     N3 - C70    - H136  
    50     49     52      1    1.1236e+02    5.8576e+02 ;     N4 - N3     - C70   
    50     51     53      1    1.0862e+02    6.1003e+02 ;     N4 - N5     - C73   
    51     53     52      1    1.1165e+02    6.0417e+02 ;     N5 - C73    - C70   
    51     53     54      1    1.2095e+02    5.5229e+02 ;     N5 - C73    - C76   
    52     53     54      1    1.1945e+02    5.4141e+02 ;    C70 - C73    - C76   
    53     52    163      1    1.2848e+02    3.9581e+02 ;    C73 - C70    - H136  
    53     54     74      1    1.1109e+02    5.5982e+02 ;    C73 - C76    - N9    
    53     54    187      1    1.0964e+02    3.9664e+02 ;    C73 - C76    - H208  
    53     54    188      1    1.0964e+02    3.9664e+02 ;    C73 - C76    - H211  
    54     74     55      1    1.1235e+02    5.3388e+02 ;    C76 - N9     - C79   
    54     74     75      1    1.1235e+02    5.3388e+02 ;    C76 - N9     - C115  
    55     56     57      1    1.1945e+02    5.4141e+02 ;    C79 - C82    - C85   
    55     56     58      1    1.2095e+02    5.5229e+02 ;    C79 - C82    - N6    
    55     74     75      1    1.1235e+02    5.3388e+02 ;    C79 - N9     - C115  
    56     55     74      1    1.1109e+02    5.5982e+02 ;    C82 - C79    - N9    
    56     55    164      1    1.0964e+02    3.9664e+02 ;    C82 - C79    - H139  
    56     55    165      1    1.0964e+02    3.9664e+02 ;    C82 - C79    - H142  
    56     57     60      1    1.0699e+02    6.1421e+02 ;    C82 - C85    - N8    
    56     57    166      1    1.2848e+02    3.9581e+02 ;    C82 - C85    - H145  
    56     58     59      1    1.0862e+02    6.1003e+02 ;    C82 - N6     - N7    
    57     56     58      1    1.1165e+02    6.0417e+02 ;    C85 - C82    - N6    
    57     60     59      1    1.1236e+02    5.8576e+02 ;    C85 - N8     - N7    
    57     60     61      1    1.2646e+02    5.1798e+02 ;    C85 - N8     - C88   
    58     59     60      1    1.0624e+02    6.3597e+02 ;     N6 - N7     - N8    
    59     60     61      1    1.2018e+02    5.4810e+02 ;     N7 - N8     - C88   
    60     57    166      1    1.2053e+02    4.1673e+02 ;     N8 - C85    - H145  
    60     61     62      1    1.1288e+02    5.4810e+02 ;     N8 - C88    - C91   
    60     61    167      1    1.0878e+02    4.1673e+02 ;     N8 - C88    - H148  
    60     61    168      1    1.0878e+02    4.1673e+02 ;     N8 - C88    - H151  
    61     62     63      1    1.0797e+02    5.6902e+02 ;    C88 - C91    - O5    
    61     62    169      1    1.0956e+02    3.8828e+02 ;    C88 - C91    - H154  
    61     62    170      1    1.0956e+02    3.8828e+02 ;    C88 - C91    - H157  
    62     61    167      1    1.0956e+02    3.8828e+02 ;    C91 - C88    - H148  
    62     61    168      1    1.0956e+02    3.8828e+02 ;    C91 - C88    - H151  
    62     63     64      1    1.1248e+02    5.2467e+02 ;    C91 - O5     - C94   
    63     62    169      1    1.0978e+02    4.2509e+02 ;     O5 - C91    - H154  
    63     62    170      1    1.0978e+02    4.2509e+02 ;     O5 - C91    - H157  
    63     64     65      1    1.0797e+02    5.6902e+02 ;     O5 - C94    - C97   
    63     64    171      1    1.0978e+02    4.2509e+02 ;     O5 - C94    - H160  
    63     64    172      1    1.0978e+02    4.2509e+02 ;     O5 - C94    - H163  
    64     65     66      1    1.0797e+02    5.6902e+02 ;    C94 - C97    - O6    
    64     65    173      1    1.0956e+02    3.8828e+02 ;    C94 - C97    - H166  
    64     65    174      1    1.0956e+02    3.8828e+02 ;    C94 - C97    - H169  
    65     64    171      1    1.0956e+02    3.8828e+02 ;    C97 - C94    - H160  
    65     64    172      1    1.0956e+02    3.8828e+02 ;    C97 - C94    - H163  
    65     66     67      1    1.1248e+02    5.2467e+02 ;    C97 - O6     - C100  
    66     65    173      1    1.0978e+02    4.2509e+02 ;     O6 - C97    - H166  
    66     65    174      1    1.0978e+02    4.2509e+02 ;     O6 - C97    - H169  
    66     67     68      1    1.0797e+02    5.6902e+02 ;     O6 - C100   - C103  
    66     67    175      1    1.0978e+02    4.2509e+02 ;     O6 - C100   - H172  
    66     67    176      1    1.0978e+02    4.2509e+02 ;     O6 - C100   - H175  
    67     68     69      1    1.0797e+02    5.6902e+02 ;   C100 - C103   - O7    
    67     68    177      1    1.0956e+02    3.8828e+02 ;   C100 - C103   - H178  
    67     68    178      1    1.0956e+02    3.8828e+02 ;   C100 - C103   - H181  
    68     67    175      1    1.0956e+02    3.8828e+02 ;   C103 - C100   - H172  
    68     67    176      1    1.0956e+02    3.8828e+02 ;   C103 - C100   - H175  
    68     69     70      1    1.1248e+02    5.2467e+02 ;   C103 - O7     - C106  
    69     68    177      1    1.0978e+02    4.2509e+02 ;     O7 - C103   - H178  
    69     68    178      1    1.0978e+02    4.2509e+02 ;     O7 - C103   - H181  
    69     70     71      1    1.0797e+02    5.6902e+02 ;     O7 - C106   - C109  
    69     70    179      1    1.0978e+02    4.2509e+02 ;     O7 - C106   - H184  
    69     70    180      1    1.0978e+02    4.2509e+02 ;     O7 - C106   - H187  
    70     71     72      1    1.0797e+02    5.6902e+02 ;   C106 - C109   - O8    
    70     71    181      1    1.0956e+02    3.8828e+02 ;   C106 - C109   - H190  
    70     71    182      1    1.0956e+02    3.8828e+02 ;   C106 - C109   - H193  
    71     70    179      1    1.0956e+02    3.8828e+02 ;   C109 - C106   - H184  
    71     70    180      1    1.0956e+02    3.8828e+02 ;   C109 - C106   - H187  
    71     72     73      1    1.1248e+02    5.2467e+02 ;   C109 - O8     - C112  
    72     71    181      1    1.0978e+02    4.2509e+02 ;     O8 - C109   - H190  
    72     71    182      1    1.0978e+02    4.2509e+02 ;     O8 - C109   - H193  
    72     73    183      1    1.0978e+02    4.2509e+02 ;     O8 - C112   - H196  
    72     73    184      1    1.0978e+02    4.2509e+02 ;     O8 - C112   - H199  
    72     73    325      1    1.0797e+02    5.6902e+02 ;     O8 - C112   - C42   
    73    325    185      1    1.0956e+02    3.8828e+02 ;   C112 - C42    - H202  
    73    325    186      1    1.0956e+02    3.8828e+02 ;   C112 - C42    - H205  
    73    325    295      1    1.1161e+02    5.5145e+02 ;   C112 - C42    - N13   
    74     54    187      1    1.0988e+02    4.1422e+02 ;     N9 - C76    - H208  
    74     54    188      1    1.0988e+02    4.1422e+02 ;     N9 - C76    - H211  
    74     55    164      1    1.0988e+02    4.1422e+02 ;     N9 - C79    - H139  
    74     55    165      1    1.0988e+02    4.1422e+02 ;     N9 - C79    - H142  
    74     75     76      1    1.1109e+02    5.5982e+02 ;     N9 - C115   - C118  
    74     75    189      1    1.0988e+02    4.1422e+02 ;     N9 - C115   - H48   
    74     75    190      1    1.0988e+02    4.1422e+02 ;     N9 - C115   - H49   
    75     76     77      1    1.1945e+02    5.4141e+02 ;   C115 - C118   - C121  
    75     76     78      1    1.2095e+02    5.5229e+02 ;   C115 - C118   - N10   
    76     75    189      1    1.0964e+02    3.9664e+02 ;   C118 - C115   - H48   
    76     75    190      1    1.0964e+02    3.9664e+02 ;   C118 - C115   - H49   
    76     77     80      1    1.0699e+02    6.1421e+02 ;   C118 - C121   - N12   
    76     77    191      1    1.2848e+02    3.9581e+02 ;   C118 - C121   - H50   
    76     78     79      1    1.0862e+02    6.1003e+02 ;   C118 - N10    - N11   
    77     76     78      1    1.1165e+02    6.0417e+02 ;   C121 - C118   - N10   
    77     80     79      1    1.1236e+02    5.8576e+02 ;   C121 - N12    - N11   
    77     80     81      1    1.2646e+02    5.1798e+02 ;   C121 - N12    - C124  
    78     79     80      1    1.0624e+02    6.3597e+02 ;    N10 - N11    - N12   
    79     80     81      1    1.2018e+02    5.4810e+02 ;    N11 - N12    - C124  
    80     77    191      1    1.2053e+02    4.1673e+02 ;    N12 - C121   - H50   
    80     81     82      1    1.1288e+02    5.4810e+02 ;    N12 - C124   - C127  
    80     81    192      1    1.0878e+02    4.1673e+02 ;    N12 - C124   - H51   
    80     81    193      1    1.0878e+02    4.1673e+02 ;    N12 - C124   - H52   
    81     82     83      1    1.0797e+02    5.6902e+02 ;   C124 - C127   - O9    
    81     82    194      1    1.0956e+02    3.8828e+02 ;   C124 - C127   - H53   
    81     82    195      1    1.0956e+02    3.8828e+02 ;   C124 - C127   - H54   
    82     81    192      1    1.0956e+02    3.8828e+02 ;   C127 - C124   - H51   
    82     81    193      1    1.0956e+02    3.8828e+02 ;   C127 - C124   - H52   
    82     83     84      1    1.1248e+02    5.2467e+02 ;   C127 - O9     - C31   
    83     82    194      1    1.0978e+02    4.2509e+02 ;     O9 - C127   - H53   
    83     82    195      1    1.0978e+02    4.2509e+02 ;     O9 - C127   - H54   
    83     84     85      1    1.0797e+02    5.6902e+02 ;     O9 - C31    - C32   
    83     84    196      1    1.0978e+02    4.2509e+02 ;     O9 - C31    - H55   
    83     84    197      1    1.0978e+02    4.2509e+02 ;     O9 - C31    - H56   
    84     85     86      1    1.0797e+02    5.6902e+02 ;    C31 - C32    - O10   
    84     85    198      1    1.0956e+02    3.8828e+02 ;    C31 - C32    - H57   
    84     85    199      1    1.0956e+02    3.8828e+02 ;    C31 - C32    - H58   
    85     84    196      1    1.0956e+02    3.8828e+02 ;    C32 - C31    - H55   
    85     84    197      1    1.0956e+02    3.8828e+02 ;    C32 - C31    - H56   
    85     86     87      1    1.1248e+02    5.2467e+02 ;    C32 - O10    - C33   
    86     85    198      1    1.0978e+02    4.2509e+02 ;    O10 - C32    - H57   
    86     85    199      1    1.0978e+02    4.2509e+02 ;    O10 - C32    - H58   
    86     87     88      1    1.0797e+02    5.6902e+02 ;    O10 - C33    - C34   
    86     87    200      1    1.0978e+02    4.2509e+02 ;    O10 - C33    - H59   
    86     87    201      1    1.0978e+02    4.2509e+02 ;    O10 - C33    - H60   
    87     88     89      1    1.0797e+02    5.6902e+02 ;    C33 - C34    - O11   
    87     88    202      1    1.0956e+02    3.8828e+02 ;    C33 - C34    - H61   
    87     88    203      1    1.0956e+02    3.8828e+02 ;    C33 - C34    - H62   
    88     87    200      1    1.0956e+02    3.8828e+02 ;    C34 - C33    - H59   
    88     87    201      1    1.0956e+02    3.8828e+02 ;    C34 - C33    - H60   
    88     89     90      1    1.1248e+02    5.2467e+02 ;    C34 - O11    - C35   
    89     88    202      1    1.0978e+02    4.2509e+02 ;    O11 - C34    - H61   
    89     88    203      1    1.0978e+02    4.2509e+02 ;    O11 - C34    - H62   
    89     90     91      1    1.0797e+02    5.6902e+02 ;    O11 - C35    - C36   
    89     90    204      1    1.0978e+02    4.2509e+02 ;    O11 - C35    - H63   
    89     90    205      1    1.0978e+02    4.2509e+02 ;    O11 - C35    - H64   
    90     91     92      1    1.0797e+02    5.6902e+02 ;    C35 - C36    - O12   
    90     91    206      1    1.0956e+02    3.8828e+02 ;    C35 - C36    - H65   
    90     91    207      1    1.0956e+02    3.8828e+02 ;    C35 - C36    - H66   
    91     90    204      1    1.0956e+02    3.8828e+02 ;    C36 - C35    - H63   
    91     90    205      1    1.0956e+02    3.8828e+02 ;    C36 - C35    - H64   
    91     92     93      1    1.1248e+02    5.2467e+02 ;    C36 - O12    - C37   
    92     91    206      1    1.0978e+02    4.2509e+02 ;    O12 - C36    - H65   
    92     91    207      1    1.0978e+02    4.2509e+02 ;    O12 - C36    - H66   
    92     93     94      1    1.0797e+02    5.6902e+02 ;    O12 - C37    - C38   
    92     93    208      1    1.0978e+02    4.2509e+02 ;    O12 - C37    - H67   
    92     93    209      1    1.0978e+02    4.2509e+02 ;    O12 - C37    - H68   
    93     94    210      1    1.0956e+02    3.8828e+02 ;    C37 - C38    - H69   
    93     94    211      1    1.0956e+02    3.8828e+02 ;    C37 - C38    - H70   
    94     35    236      1    1.2069e+02    5.3053e+02 ;    C38 - N2     - C107  
    94     35    291      1    1.1768e+02    3.8325e+02 ;    C38 - N2     - H73   
    94     93    208      1    1.0956e+02    3.8828e+02 ;    C38 - C37    - H67   
    94     93    209      1    1.0956e+02    3.8828e+02 ;    C38 - C37    - H68   
    98      1     99      1    1.0758e+02    3.2970e+02 ;     H4 - C1     - H5    
   101      9    102      1    1.0758e+02    3.2970e+02 ;     H7 - C6     - H8    
   103     10    104      1    1.0758e+02    3.2970e+02 ;     H9 - C7     - H10   
   105     11    106      1    1.0758e+02    3.2970e+02 ;    H11 - C8     - H12   
   108     17    109      1    1.0758e+02    3.2970e+02 ;    H14 - C14    - H15   
   110     18    111      1    1.0758e+02    3.2970e+02 ;    H16 - C15    - H17   
   112     19    113      1    1.0758e+02    3.2970e+02 ;    H18 - C16    - H19   
   114     22    115      1    1.0758e+02    3.2970e+02 ;    H20 - C19    - H21   
   116     23    117      1    1.0758e+02    3.2970e+02 ;    H22 - C20    - H23   
   118     25    119      1    1.0758e+02    3.2970e+02 ;    H24 - C22    - H25   
   120     27    121      1    1.0758e+02    3.2970e+02 ;    H26 - C24    - H27   
   120     27    122      1    1.0758e+02    3.2970e+02 ;    H26 - C24    - H28   
   121     27    122      1    1.0758e+02    3.2970e+02 ;    H27 - C24    - H28   
   123     28    124      1    1.0758e+02    3.2970e+02 ;    H29 - C25    - H30   
   123     28    125      1    1.0758e+02    3.2970e+02 ;    H29 - C25    - H31   
   124     28    125      1    1.0758e+02    3.2970e+02 ;    H30 - C25    - H31   
   127     29    128      1    1.0758e+02    3.2970e+02 ;    H33 - C26    - H34   
   127     29    129      1    1.0758e+02    3.2970e+02 ;    H33 - C26    - H35   
   128     29    129      1    1.0758e+02    3.2970e+02 ;    H34 - C26    - H35   
   130     30    131      1    1.0758e+02    3.2970e+02 ;    H36 - C27    - H37   
   130     30    132      1    1.0758e+02    3.2970e+02 ;    H36 - C27    - H38   
   131     30    132      1    1.0758e+02    3.2970e+02 ;    H37 - C27    - H38   
   133     31    134      1    1.0758e+02    3.2970e+02 ;    H39 - C28    - H40   
   133     31    135      1    1.0758e+02    3.2970e+02 ;    H39 - C28    - H41   
   134     31    135      1    1.0758e+02    3.2970e+02 ;    H40 - C28    - H41   
   136     32    137      1    1.0758e+02    3.2970e+02 ;    H42 - C29    - H43   
   136     32    138      1    1.0758e+02    3.2970e+02 ;    H42 - C29    - H44   
   137     32    138      1    1.0758e+02    3.2970e+02 ;    H43 - C29    - H44   
   139     33    140      1    1.0758e+02    3.2970e+02 ;    H45 - C30    - H46   
   139     33    141      1    1.0758e+02    3.2970e+02 ;    H45 - C30    - H47   
   140     33    141      1    1.0758e+02    3.2970e+02 ;    H46 - C30    - H47   
   143     34    144      1    1.0846e+02    3.2803e+02 ;    H76 - C39    - H79   
   145     36    146      1    1.0846e+02    3.2803e+02 ;    H82 - C43    - H85   
   147     38    148      1    1.0846e+02    3.2803e+02 ;    H88 - C46    - H91   
   149     39    150      1    1.0846e+02    3.2803e+02 ;    H94 - C49    - H97   
   151     41    152      1    1.0846e+02    3.2803e+02 ;   H100 - C52    - H103  
   153     42    154      1    1.0846e+02    3.2803e+02 ;   H106 - C55    - H109  
   155     44    156      1    1.0846e+02    3.2803e+02 ;   H112 - C58    - H115  
   157     45    158      1    1.0846e+02    3.2803e+02 ;   H118 - C61    - H121  
   159     47    160      1    1.0846e+02    3.2803e+02 ;   H124 - C64    - H127  
   161     48    162      1    1.0846e+02    3.2803e+02 ;   H130 - C67    - H133  
   164     55    165      1    1.0846e+02    3.2803e+02 ;   H139 - C79    - H142  
   167     61    168      1    1.0846e+02    3.2803e+02 ;   H148 - C88    - H151  
   169     62    170      1    1.0846e+02    3.2803e+02 ;   H154 - C91    - H157  
   171     64    172      1    1.0846e+02    3.2803e+02 ;   H160 - C94    - H163  
   173     65    174      1    1.0846e+02    3.2803e+02 ;   H166 - C97    - H169  
   175     67    176      1    1.0846e+02    3.2803e+02 ;   H172 - C100   - H175  
   177     68    178      1    1.0846e+02    3.2803e+02 ;   H178 - C103   - H181  
   179     70    180      1    1.0846e+02    3.2803e+02 ;   H184 - C106   - H187  
   181     71    182      1    1.0846e+02    3.2803e+02 ;   H190 - C109   - H193  
   183     73    184      1    1.0846e+02    3.2803e+02 ;   H196 - C112   - H199  
   183     73    325      1    1.0956e+02    3.8828e+02 ;   H196 - C112   - C42   
   184     73    325      1    1.0956e+02    3.8828e+02 ;   H199 - C112   - C42   
   185    325    186      1    1.0846e+02    3.2803e+02 ;   H202 - C42    - H205  
   185    325    295      1    1.0888e+02    4.1673e+02 ;   H202 - C42    - N13   
   186    325    295      1    1.0888e+02    4.1673e+02 ;   H205 - C42    - N13   
   187     54    188      1    1.0846e+02    3.2803e+02 ;   H208 - C76    - H211  
   189     75    190      1    1.0846e+02    3.2803e+02 ;    H48 - C115   - H49   
   192     81    193      1    1.0846e+02    3.2803e+02 ;    H51 - C124   - H52   
   194     82    195      1    1.0846e+02    3.2803e+02 ;    H53 - C127   - H54   
   196     84    197      1    1.0846e+02    3.2803e+02 ;    H55 - C31    - H56   
   198     85    199      1    1.0846e+02    3.2803e+02 ;    H57 - C32    - H58   
   200     87    201      1    1.0846e+02    3.2803e+02 ;    H59 - C33    - H60   
   202     88    203      1    1.0846e+02    3.2803e+02 ;    H61 - C34    - H62   
   204     90    205      1    1.0846e+02    3.2803e+02 ;    H63 - C35    - H64   
   206     91    207      1    1.0846e+02    3.2803e+02 ;    H65 - C36    - H66   
   208     93    209      1    1.0846e+02    3.2803e+02 ;    H67 - C37    - H68   
   210     94    211      1    1.0846e+02    3.2803e+02 ;    H69 - C38    - H70   
   212    214    213      1    1.1019e+02    5.6484e+02 ;    C40 - C44    - O14   
   212    214    215      1    1.1151e+02    5.2635e+02 ;    C40 - C44    - C47   
   212    214    249      1    1.0956e+02    3.8828e+02 ;    C40 - C44    - H89   
   212    219    218      1    1.1151e+02    5.2635e+02 ;    C40 - C56    - C53   
   212    219    250      1    1.0980e+02    3.8744e+02 ;    C40 - C56    - H92   
   212    219    251      1    1.0980e+02    3.8744e+02 ;    C40 - C56    - H95   
   213    214    215      1    1.1019e+02    5.6484e+02 ;    O14 - C44    - C47   
   213    214    249      1    1.1026e+02    4.2593e+02 ;    O14 - C44    - H89   
   214    212    219      1    1.1151e+02    5.2635e+02 ;    C44 - C40    - C56   
   214    212    247      1    1.0980e+02    3.8744e+02 ;    C44 - C40    - H83   
   214    212    248      1    1.0980e+02    3.8744e+02 ;    C44 - C40    - H86   
   214    213    275      1    1.0726e+02    3.9664e+02 ;    C44 - O14    - H167  
   214    215    217      1    1.1151e+02    5.2635e+02 ;    C44 - C47    - C50   
   214    215    241      1    1.1151e+02    5.2635e+02 ;    C44 - C47    - C122  
   214    215    242      1    1.1151e+02    5.2635e+02 ;    C44 - C47    - C125  
   215    214    249      1    1.0956e+02    3.8828e+02 ;    C47 - C44    - H89   
   215    217    218      1    1.1151e+02    5.2635e+02 ;    C47 - C50    - C53   
   215    217    220      1    1.1151e+02    5.2635e+02 ;    C47 - C50    - C59   
   215    217    246      1    1.0980e+02    3.8744e+02 ;    C47 - C50    - H80   
   215    241    282      1    1.0980e+02    3.8744e+02 ;    C47 - C122   - H188  
   215    241    283      1    1.0980e+02    3.8744e+02 ;    C47 - C122   - H191  
   215    241    284      1    1.0980e+02    3.8744e+02 ;    C47 - C122   - H194  
   215    242    285      1    1.0980e+02    3.8744e+02 ;    C47 - C125   - H197  
   215    242    286      1    1.0980e+02    3.8744e+02 ;    C47 - C125   - H200  
   215    242    287      1    1.0980e+02    3.8744e+02 ;    C47 - C125   - H203  
   216    236    230      1    1.2320e+02    5.6400e+02 ;    O17 - C107   - C89   
   217    215    241      1    1.1151e+02    5.2635e+02 ;    C50 - C47    - C122  
   217    215    242      1    1.1151e+02    5.2635e+02 ;    C50 - C47    - C125  
   217    218    219      1    1.1151e+02    5.2635e+02 ;    C50 - C53    - C56   
   217    218    223      1    1.1151e+02    5.2635e+02 ;    C50 - C53    - C68   
   217    218    238      1    1.1151e+02    5.2635e+02 ;    C50 - C53    - C113  
   217    220    221      1    1.1151e+02    5.2635e+02 ;    C50 - C59    - C62   
   217    220    252      1    1.0980e+02    3.8744e+02 ;    C50 - C59    - H98   
   217    220    253      1    1.0980e+02    3.8744e+02 ;    C50 - C59    - H101  
   218    217    220      1    1.1151e+02    5.2635e+02 ;    C53 - C50    - C59   
   218    217    246      1    1.0980e+02    3.8744e+02 ;    C53 - C50    - H80   
   218    219    250      1    1.0980e+02    3.8744e+02 ;    C53 - C56    - H92   
   218    219    251      1    1.0980e+02    3.8744e+02 ;    C53 - C56    - H95   
   218    223    222      1    1.1151e+02    5.2635e+02 ;    C53 - C68    - C65   
   218    223    227      1    1.1151e+02    5.2635e+02 ;    C53 - C68    - C80   
   218    223    245      1    1.0980e+02    3.8744e+02 ;    C53 - C68    - H77   
   218    238    272      1    1.0980e+02    3.8744e+02 ;    C53 - C113   - H158  
   218    238    273      1    1.0980e+02    3.8744e+02 ;    C53 - C113   - H161  
   218    238    274      1    1.0980e+02    3.8744e+02 ;    C53 - C113   - H164  
   219    212    247      1    1.0980e+02    3.8744e+02 ;    C56 - C40    - H83   
   219    212    248      1    1.0980e+02    3.8744e+02 ;    C56 - C40    - H86   
   219    218    223      1    1.1151e+02    5.2635e+02 ;    C56 - C53    - C68   
   219    218    238      1    1.1151e+02    5.2635e+02 ;    C56 - C53    - C113  
   220    217    246      1    1.0980e+02    3.8744e+02 ;    C59 - C50    - H80   
   220    221    222      1    1.1151e+02    5.2635e+02 ;    C59 - C62    - C65   
   220    221    254      1    1.0980e+02    3.8744e+02 ;    C59 - C62    - H104  
   220    221    255      1    1.0980e+02    3.8744e+02 ;    C59 - C62    - H107  
   221    220    252      1    1.0980e+02    3.8744e+02 ;    C62 - C59    - H98   
   221    220    253      1    1.0980e+02    3.8744e+02 ;    C62 - C59    - H101  
   221    222    223      1    1.1151e+02    5.2635e+02 ;    C62 - C65    - C68   
   221    222    224      1    1.1151e+02    5.2635e+02 ;    C62 - C65    - C71   
   221    222    237      1    1.1151e+02    5.2635e+02 ;    C62 - C65    - C110  
   222    221    254      1    1.0980e+02    3.8744e+02 ;    C65 - C62    - H104  
   222    221    255      1    1.0980e+02    3.8744e+02 ;    C65 - C62    - H107  
   222    223    227      1    1.1151e+02    5.2635e+02 ;    C65 - C68    - C80   
   222    223    245      1    1.0980e+02    3.8744e+02 ;    C65 - C68    - H77   
   222    224    225      1    1.1156e+02    5.3053e+02 ;    C65 - C71    - C74   
   222    224    228      1    1.1151e+02    5.2635e+02 ;    C65 - C71    - C83   
   222    224    240      1    1.1151e+02    5.2635e+02 ;    C65 - C71    - C119  
   222    237    269      1    1.0980e+02    3.8744e+02 ;    C65 - C110   - H149  
   222    237    270      1    1.0980e+02    3.8744e+02 ;    C65 - C110   - H152  
   222    237    271      1    1.0980e+02    3.8744e+02 ;    C65 - C110   - H155  
   223    218    238      1    1.1151e+02    5.2635e+02 ;    C68 - C53    - C113  
   223    222    224      1    1.1151e+02    5.2635e+02 ;    C68 - C65    - C71   
   223    222    237      1    1.1151e+02    5.2635e+02 ;    C68 - C65    - C110  
   223    227    226      1    1.1156e+02    5.3053e+02 ;    C68 - C80    - C77   
   223    227    257      1    1.0980e+02    3.8744e+02 ;    C68 - C80    - H113  
   223    227    258      1    1.0980e+02    3.8744e+02 ;    C68 - C80    - H116  
   224    222    237      1    1.1151e+02    5.2635e+02 ;    C71 - C65    - C110  
   224    225    226      1    1.2363e+02    5.3639e+02 ;    C71 - C74    - C77   
   224    225    231      1    1.1565e+02    5.2635e+02 ;    C71 - C74    - C92   
   224    228    229      1    1.1151e+02    5.2635e+02 ;    C71 - C83    - C86   
   224    228    259      1    1.0980e+02    3.8744e+02 ;    C71 - C83    - H119  
   224    228    260      1    1.0980e+02    3.8744e+02 ;    C71 - C83    - H122  
   224    240    279      1    1.0980e+02    3.8744e+02 ;    C71 - C119   - H179  
   224    240    280      1    1.0980e+02    3.8744e+02 ;    C71 - C119   - H182  
   224    240    281      1    1.0980e+02    3.8744e+02 ;    C71 - C119   - H185  
   225    224    228      1    1.1156e+02    5.3053e+02 ;    C74 - C71    - C83   
   225    224    240      1    1.1156e+02    5.3053e+02 ;    C74 - C71    - C119  
   225    226    227      1    1.2363e+02    5.3639e+02 ;    C74 - C77    - C80   
   225    226    256      1    1.2043e+02    4.1756e+02 ;    C74 - C77    - H110  
   225    231    230      1    1.1156e+02    5.3053e+02 ;    C74 - C92    - C89   
   225    231    235      1    1.1156e+02    5.3053e+02 ;    C74 - C92    - C104  
   225    231    244      1    1.1036e+02    3.9330e+02 ;    C74 - C92    - H72   
   226    225    231      1    1.2363e+02    5.3639e+02 ;    C77 - C74    - C92   
   226    227    257      1    1.1036e+02    3.9330e+02 ;    C77 - C80    - H113  
   226    227    258      1    1.1036e+02    3.9330e+02 ;    C77 - C80    - H116  
   227    223    245      1    1.0980e+02    3.8744e+02 ;    C80 - C68    - H77   
   227    226    256      1    1.1568e+02    3.8409e+02 ;    C80 - C77    - H110  
   228    224    240      1    1.1151e+02    5.2635e+02 ;    C83 - C71    - C119  
   228    229    230      1    1.1151e+02    5.2635e+02 ;    C83 - C86    - C89   
   228    229    261      1    1.0980e+02    3.8744e+02 ;    C83 - C86    - H125  
   228    229    262      1    1.0980e+02    3.8744e+02 ;    C83 - C86    - H128  
   229    228    259      1    1.0980e+02    3.8744e+02 ;    C86 - C83    - H119  
   229    228    260      1    1.0980e+02    3.8744e+02 ;    C86 - C83    - H122  
   229    230    231      1    1.1151e+02    5.2635e+02 ;    C86 - C89    - C92   
   229    230    232      1    1.1151e+02    5.2635e+02 ;    C86 - C89    - C95   
   229    230    236      1    1.1104e+02    5.2969e+02 ;    C86 - C89    - C107  
   230    229    261      1    1.0980e+02    3.8744e+02 ;    C89 - C86    - H125  
   230    229    262      1    1.0980e+02    3.8744e+02 ;    C89 - C86    - H128  
   230    231    235      1    1.1151e+02    5.2635e+02 ;    C89 - C92    - C104  
   230    231    244      1    1.0980e+02    3.8744e+02 ;    C89 - C92    - H72   
   230    232    233      1    1.1151e+02    5.2635e+02 ;    C89 - C95    - C98   
   230    232    263      1    1.0980e+02    3.8744e+02 ;    C89 - C95    - H131  
   230    232    264      1    1.0980e+02    3.8744e+02 ;    C89 - C95    - H134  
   231    230    232      1    1.1151e+02    5.2635e+02 ;    C92 - C89    - C95   
   231    230    236      1    1.1104e+02    5.2969e+02 ;    C92 - C89    - C107  
   231    235    234      1    1.1151e+02    5.2635e+02 ;    C92 - C104   - C101  
   231    235    267      1    1.0980e+02    3.8744e+02 ;    C92 - C104   - H143  
   231    235    268      1    1.0980e+02    3.8744e+02 ;    C92 - C104   - H146  
   232    230    236      1    1.1104e+02    5.2969e+02 ;    C95 - C89    - C107  
   232    233    234      1    1.1151e+02    5.2635e+02 ;    C95 - C98    - C101  
   232    233    265      1    1.0980e+02    3.8744e+02 ;    C95 - C98    - H137  
   232    233    266      1    1.0980e+02    3.8744e+02 ;    C95 - C98    - H140  
   233    232    263      1    1.0980e+02    3.8744e+02 ;    C98 - C95    - H131  
   233    232    264      1    1.0980e+02    3.8744e+02 ;    C98 - C95    - H134  
   233    234    235      1    1.1151e+02    5.2635e+02 ;    C98 - C101   - C104  
   233    234    239      1    1.1151e+02    5.2635e+02 ;    C98 - C101   - C116  
   233    234    243      1    1.1151e+02    5.2635e+02 ;    C98 - C101   - C128  
   234    233    265      1    1.0980e+02    3.8744e+02 ;   C101 - C98    - H137  
   234    233    266      1    1.0980e+02    3.8744e+02 ;   C101 - C98    - H140  
   234    235    267      1    1.0980e+02    3.8744e+02 ;   C101 - C104   - H143  
   234    235    268      1    1.0980e+02    3.8744e+02 ;   C101 - C104   - H146  
   234    239    276      1    1.0980e+02    3.8744e+02 ;   C101 - C116   - H170  
   234    239    277      1    1.0980e+02    3.8744e+02 ;   C101 - C116   - H173  
   234    239    278      1    1.0980e+02    3.8744e+02 ;   C101 - C116   - H176  
   234    243    288      1    1.0980e+02    3.8744e+02 ;   C101 - C128   - H206  
   234    243    289      1    1.0980e+02    3.8744e+02 ;   C101 - C128   - H209  
   234    243    290      1    1.0980e+02    3.8744e+02 ;   C101 - C128   - H212  
   235    231    244      1    1.0980e+02    3.8744e+02 ;   C104 - C92    - H72   
   235    234    239      1    1.1151e+02    5.2635e+02 ;   C104 - C101   - C116  
   235    234    243      1    1.1151e+02    5.2635e+02 ;   C104 - C101   - C128  
   236     35    291      1    1.1755e+02    4.0417e+02 ;   C107 - N2     - H73   
   239    234    243      1    1.1151e+02    5.2635e+02 ;   C116 - C101   - C128  
   241    215    242      1    1.1151e+02    5.2635e+02 ;   C122 - C47    - C125  
   247    212    248      1    1.0758e+02    3.2970e+02 ;    H83 - C40    - H86   
   250    219    251      1    1.0758e+02    3.2970e+02 ;    H92 - C56    - H95   
   252    220    253      1    1.0758e+02    3.2970e+02 ;    H98 - C59    - H101  
   254    221    255      1    1.0758e+02    3.2970e+02 ;   H104 - C62    - H107  
   257    227    258      1    1.0758e+02    3.2970e+02 ;   H113 - C80    - H116  
   259    228    260      1    1.0758e+02    3.2970e+02 ;   H119 - C83    - H122  
   261    229    262      1    1.0758e+02    3.2970e+02 ;   H125 - C86    - H128  
   263    232    264      1    1.0758e+02    3.2970e+02 ;   H131 - C95    - H134  
   265    233    266      1    1.0758e+02    3.2970e+02 ;   H137 - C98    - H140  
   267    235    268      1    1.0758e+02    3.2970e+02 ;   H143 - C104   - H146  
   269    237    270      1    1.0758e+02    3.2970e+02 ;   H149 - C110   - H152  
   269    237    271      1    1.0758e+02    3.2970e+02 ;   H149 - C110   - H155  
   270    237    271      1    1.0758e+02    3.2970e+02 ;   H152 - C110   - H155  
   272    238    273      1    1.0758e+02    3.2970e+02 ;   H158 - C113   - H161  
   272    238    274      1    1.0758e+02    3.2970e+02 ;   H158 - C113   - H164  
   273    238    274      1    1.0758e+02    3.2970e+02 ;   H161 - C113   - H164  
   276    239    277      1    1.0758e+02    3.2970e+02 ;   H170 - C116   - H173  
   276    239    278      1    1.0758e+02    3.2970e+02 ;   H170 - C116   - H176  
   277    239    278      1    1.0758e+02    3.2970e+02 ;   H173 - C116   - H176  
   279    240    280      1    1.0758e+02    3.2970e+02 ;   H179 - C119   - H182  
   279    240    281      1    1.0758e+02    3.2970e+02 ;   H179 - C119   - H185  
   280    240    281      1    1.0758e+02    3.2970e+02 ;   H182 - C119   - H185  
   282    241    283      1    1.0758e+02    3.2970e+02 ;   H188 - C122   - H191  
   282    241    284      1    1.0758e+02    3.2970e+02 ;   H188 - C122   - H194  
   283    241    284      1    1.0758e+02    3.2970e+02 ;   H191 - C122   - H194  
   285    242    286      1    1.0758e+02    3.2970e+02 ;   H197 - C125   - H200  
   285    242    287      1    1.0758e+02    3.2970e+02 ;   H197 - C125   - H203  
   286    242    287      1    1.0758e+02    3.2970e+02 ;   H200 - C125   - H203  
   288    243    289      1    1.0758e+02    3.2970e+02 ;   H206 - C128   - H209  
   288    243    290      1    1.0758e+02    3.2970e+02 ;   H206 - C128   - H212  
   289    243    290      1    1.0758e+02    3.2970e+02 ;   H209 - C128   - H212  
   292    294    293      1    1.1019e+02    5.6484e+02 ;    C41 - C45    - O15   
   292    294    296      1    1.1151e+02    5.2635e+02 ;    C41 - C45    - C48   
   292    294    331      1    1.0956e+02    3.8828e+02 ;    C41 - C45    - H90   
   292    300    299      1    1.1151e+02    5.2635e+02 ;    C41 - C57    - C54   
   292    300    332      1    1.0980e+02    3.8744e+02 ;    C41 - C57    - H93   
   292    300    333      1    1.0980e+02    3.8744e+02 ;    C41 - C57    - H96   
   293    294    296      1    1.1019e+02    5.6484e+02 ;    O15 - C45    - C48   
   293    294    331      1    1.1026e+02    4.2593e+02 ;    O15 - C45    - H90   
   294    292    300      1    1.1151e+02    5.2635e+02 ;    C45 - C41    - C57   
   294    292    329      1    1.0980e+02    3.8744e+02 ;    C45 - C41    - H84   
   294    292    330      1    1.0980e+02    3.8744e+02 ;    C45 - C41    - H87   
   294    293    357      1    1.0726e+02    3.9664e+02 ;    C45 - O15    - H168  
   294    296    298      1    1.1151e+02    5.2635e+02 ;    C45 - C48    - C51   
   294    296    322      1    1.1151e+02    5.2635e+02 ;    C45 - C48    - C123  
   294    296    323      1    1.1151e+02    5.2635e+02 ;    C45 - C48    - C126  
   295    317    297      1    1.2305e+02    6.2091e+02 ;    N13 - C108   - O18   
   295    317    311      1    1.1518e+02    5.5898e+02 ;    N13 - C108   - C90   
   296    294    331      1    1.0956e+02    3.8828e+02 ;    C48 - C45    - H90   
   296    298    299      1    1.1151e+02    5.2635e+02 ;    C48 - C51    - C54   
   296    298    301      1    1.1151e+02    5.2635e+02 ;    C48 - C51    - C60   
   296    298    328      1    1.0980e+02    3.8744e+02 ;    C48 - C51    - H81   
   296    322    364      1    1.0980e+02    3.8744e+02 ;    C48 - C123   - H189  
   296    322    365      1    1.0980e+02    3.8744e+02 ;    C48 - C123   - H192  
   296    322    366      1    1.0980e+02    3.8744e+02 ;    C48 - C123   - H195  
   296    323    367      1    1.0980e+02    3.8744e+02 ;    C48 - C126   - H198  
   296    323    368      1    1.0980e+02    3.8744e+02 ;    C48 - C126   - H201  
   296    323    369      1    1.0980e+02    3.8744e+02 ;    C48 - C126   - H204  
   297    317    311      1    1.2320e+02    5.6400e+02 ;    O18 - C108   - C90   
   298    296    322      1    1.1151e+02    5.2635e+02 ;    C51 - C48    - C123  
   298    296    323      1    1.1151e+02    5.2635e+02 ;    C51 - C48    - C126  
   298    299    300      1    1.1151e+02    5.2635e+02 ;    C51 - C54    - C57   
   298    299    304      1    1.1151e+02    5.2635e+02 ;    C51 - C54    - C69   
   298    299    319      1    1.1151e+02    5.2635e+02 ;    C51 - C54    - C114  
   298    301    302      1    1.1151e+02    5.2635e+02 ;    C51 - C60    - C63   
   298    301    334      1    1.0980e+02    3.8744e+02 ;    C51 - C60    - H99   
   298    301    335      1    1.0980e+02    3.8744e+02 ;    C51 - C60    - H102  
   299    298    301      1    1.1151e+02    5.2635e+02 ;    C54 - C51    - C60   
   299    298    328      1    1.0980e+02    3.8744e+02 ;    C54 - C51    - H81   
   299    300    332      1    1.0980e+02    3.8744e+02 ;    C54 - C57    - H93   
   299    300    333      1    1.0980e+02    3.8744e+02 ;    C54 - C57    - H96   
   299    304    303      1    1.1151e+02    5.2635e+02 ;    C54 - C69    - C66   
   299    304    308      1    1.1151e+02    5.2635e+02 ;    C54 - C69    - C81   
   299    304    327      1    1.0980e+02    3.8744e+02 ;    C54 - C69    - H78   
   299    319    354      1    1.0980e+02    3.8744e+02 ;    C54 - C114   - H159  
   299    319    355      1    1.0980e+02    3.8744e+02 ;    C54 - C114   - H162  
   299    319    356      1    1.0980e+02    3.8744e+02 ;    C54 - C114   - H165  
   300    292    329      1    1.0980e+02    3.8744e+02 ;    C57 - C41    - H84   
   300    292    330      1    1.0980e+02    3.8744e+02 ;    C57 - C41    - H87   
   300    299    304      1    1.1151e+02    5.2635e+02 ;    C57 - C54    - C69   
   300    299    319      1    1.1151e+02    5.2635e+02 ;    C57 - C54    - C114  
   301    298    328      1    1.0980e+02    3.8744e+02 ;    C60 - C51    - H81   
   301    302    303      1    1.1151e+02    5.2635e+02 ;    C60 - C63    - C66   
   301    302    336      1    1.0980e+02    3.8744e+02 ;    C60 - C63    - H105  
   301    302    337      1    1.0980e+02    3.8744e+02 ;    C60 - C63    - H108  
   302    301    334      1    1.0980e+02    3.8744e+02 ;    C63 - C60    - H99   
   302    301    335      1    1.0980e+02    3.8744e+02 ;    C63 - C60    - H102  
   302    303    304      1    1.1151e+02    5.2635e+02 ;    C63 - C66    - C69   
   302    303    305      1    1.1151e+02    5.2635e+02 ;    C63 - C66    - C72   
   302    303    318      1    1.1151e+02    5.2635e+02 ;    C63 - C66    - C111  
   303    302    336      1    1.0980e+02    3.8744e+02 ;    C66 - C63    - H105  
   303    302    337      1    1.0980e+02    3.8744e+02 ;    C66 - C63    - H108  
   303    304    308      1    1.1151e+02    5.2635e+02 ;    C66 - C69    - C81   
   303    304    327      1    1.0980e+02    3.8744e+02 ;    C66 - C69    - H78   
   303    305    306      1    1.1156e+02    5.3053e+02 ;    C66 - C72    - C75   
   303    305    309      1    1.1151e+02    5.2635e+02 ;    C66 - C72    - C84   
   303    305    321      1    1.1151e+02    5.2635e+02 ;    C66 - C72    - C120  
   303    318    351      1    1.0980e+02    3.8744e+02 ;    C66 - C111   - H150  
   303    318    352      1    1.0980e+02    3.8744e+02 ;    C66 - C111   - H153  
   303    318    353      1    1.0980e+02    3.8744e+02 ;    C66 - C111   - H156  
   304    299    319      1    1.1151e+02    5.2635e+02 ;    C69 - C54    - C114  
   304    303    305      1    1.1151e+02    5.2635e+02 ;    C69 - C66    - C72   
   304    303    318      1    1.1151e+02    5.2635e+02 ;    C69 - C66    - C111  
   304    308    307      1    1.1156e+02    5.3053e+02 ;    C69 - C81    - C78   
   304    308    339      1    1.0980e+02    3.8744e+02 ;    C69 - C81    - H114  
   304    308    340      1    1.0980e+02    3.8744e+02 ;    C69 - C81    - H117  
   305    303    318      1    1.1151e+02    5.2635e+02 ;    C72 - C66    - C111  
   305    306    307      1    1.2363e+02    5.3639e+02 ;    C72 - C75    - C78   
   305    306    312      1    1.1565e+02    5.2635e+02 ;    C72 - C75    - C93   
   305    309    310      1    1.1151e+02    5.2635e+02 ;    C72 - C84    - C87   
   305    309    341      1    1.0980e+02    3.8744e+02 ;    C72 - C84    - H120  
   305    309    342      1    1.0980e+02    3.8744e+02 ;    C72 - C84    - H123  
   305    321    361      1    1.0980e+02    3.8744e+02 ;    C72 - C120   - H180  
   305    321    362      1    1.0980e+02    3.8744e+02 ;    C72 - C120   - H183  
   305    321    363      1    1.0980e+02    3.8744e+02 ;    C72 - C120   - H186  
   306    305    309      1    1.1156e+02    5.3053e+02 ;    C75 - C72    - C84   
   306    305    321      1    1.1156e+02    5.3053e+02 ;    C75 - C72    - C120  
   306    307    308      1    1.2363e+02    5.3639e+02 ;    C75 - C78    - C81   
   306    307    338      1    1.2043e+02    4.1756e+02 ;    C75 - C78    - H111  
   306    312    311      1    1.1156e+02    5.3053e+02 ;    C75 - C93    - C90   
   306    312    316      1    1.1156e+02    5.3053e+02 ;    C75 - C93    - C105  
   306    312    326      1    1.1036e+02    3.9330e+02 ;    C75 - C93    - H74   
   307    306    312      1    1.2363e+02    5.3639e+02 ;    C78 - C75    - C93   
   307    308    339      1    1.1036e+02    3.9330e+02 ;    C78 - C81    - H114  
   307    308    340      1    1.1036e+02    3.9330e+02 ;    C78 - C81    - H117  
   308    304    327      1    1.0980e+02    3.8744e+02 ;    C81 - C69    - H78   
   308    307    338      1    1.1568e+02    3.8409e+02 ;    C81 - C78    - H111  
   309    305    321      1    1.1151e+02    5.2635e+02 ;    C84 - C72    - C120  
   309    310    311      1    1.1151e+02    5.2635e+02 ;    C84 - C87    - C90   
   309    310    343      1    1.0980e+02    3.8744e+02 ;    C84 - C87    - H126  
   309    310    344      1    1.0980e+02    3.8744e+02 ;    C84 - C87    - H129  
   310    309    341      1    1.0980e+02    3.8744e+02 ;    C87 - C84    - H120  
   310    309    342      1    1.0980e+02    3.8744e+02 ;    C87 - C84    - H123  
   310    311    312      1    1.1151e+02    5.2635e+02 ;    C87 - C90    - C93   
   310    311    313      1    1.1151e+02    5.2635e+02 ;    C87 - C90    - C96   
   310    311    317      1    1.1104e+02    5.2969e+02 ;    C87 - C90    - C108  
   311    310    343      1    1.0980e+02    3.8744e+02 ;    C90 - C87    - H126  
   311    310    344      1    1.0980e+02    3.8744e+02 ;    C90 - C87    - H129  
   311    312    316      1    1.1151e+02    5.2635e+02 ;    C90 - C93    - C105  
   311    312    326      1    1.0980e+02    3.8744e+02 ;    C90 - C93    - H74   
   311    313    314      1    1.1151e+02    5.2635e+02 ;    C90 - C96    - C99   
   311    313    345      1    1.0980e+02    3.8744e+02 ;    C90 - C96    - H132  
   311    313    346      1    1.0980e+02    3.8744e+02 ;    C90 - C96    - H135  
   312    311    313      1    1.1151e+02    5.2635e+02 ;    C93 - C90    - C96   
   312    311    317      1    1.1104e+02    5.2969e+02 ;    C93 - C90    - C108  
   312    316    315      1    1.1151e+02    5.2635e+02 ;    C93 - C105   - C102  
   312    316    349      1    1.0980e+02    3.8744e+02 ;    C93 - C105   - H144  
   312    316    350      1    1.0980e+02    3.8744e+02 ;    C93 - C105   - H147  
   313    311    317      1    1.1104e+02    5.2969e+02 ;    C96 - C90    - C108  
   313    314    315      1    1.1151e+02    5.2635e+02 ;    C96 - C99    - C102  
   313    314    347      1    1.0980e+02    3.8744e+02 ;    C96 - C99    - H138  
   313    314    348      1    1.0980e+02    3.8744e+02 ;    C96 - C99    - H141  
   314    313    345      1    1.0980e+02    3.8744e+02 ;    C99 - C96    - H132  
   314    313    346      1    1.0980e+02    3.8744e+02 ;    C99 - C96    - H135  
   314    315    316      1    1.1151e+02    5.2635e+02 ;    C99 - C102   - C105  
   314    315    320      1    1.1151e+02    5.2635e+02 ;    C99 - C102   - C117  
   314    315    324      1    1.1151e+02    5.2635e+02 ;    C99 - C102   - C129  
   315    314    347      1    1.0980e+02    3.8744e+02 ;   C102 - C99    - H138  
   315    314    348      1    1.0980e+02    3.8744e+02 ;   C102 - C99    - H141  
   315    316    349      1    1.0980e+02    3.8744e+02 ;   C102 - C105   - H144  
   315    316    350      1    1.0980e+02    3.8744e+02 ;   C102 - C105   - H147  
   315    320    358      1    1.0980e+02    3.8744e+02 ;   C102 - C117   - H171  
   315    320    359      1    1.0980e+02    3.8744e+02 ;   C102 - C117   - H174  
   315    320    360      1    1.0980e+02    3.8744e+02 ;   C102 - C117   - H177  
   315    324    370      1    1.0980e+02    3.8744e+02 ;   C102 - C129   - H207  
   315    324    371      1    1.0980e+02    3.8744e+02 ;   C102 - C129   - H210  
   315    324    372      1    1.0980e+02    3.8744e+02 ;   C102 - C129   - H213  
   316    312    326      1    1.0980e+02    3.8744e+02 ;   C105 - C93    - H74   
   316    315    320      1    1.1151e+02    5.2635e+02 ;   C105 - C102   - C117  
   316    315    324      1    1.1151e+02    5.2635e+02 ;   C105 - C102   - C129  
   317    295    325      1    1.2069e+02    5.3053e+02 ;   C108 - N13    - C42   
   317    295    373      1    1.1755e+02    4.0417e+02 ;   C108 - N13    - H75   
   320    315    324      1    1.1151e+02    5.2635e+02 ;   C117 - C102   - C129  
   322    296    323      1    1.1151e+02    5.2635e+02 ;   C123 - C48    - C126  
   325    295    373      1    1.1768e+02    3.8325e+02 ;    C42 - N13    - H75   
   329    292    330      1    1.0758e+02    3.2970e+02 ;    H84 - C41    - H87   
   332    300    333      1    1.0758e+02    3.2970e+02 ;    H93 - C57    - H96   
   334    301    335      1    1.0758e+02    3.2970e+02 ;    H99 - C60    - H102  
   336    302    337      1    1.0758e+02    3.2970e+02 ;   H105 - C63    - H108  
   339    308    340      1    1.0758e+02    3.2970e+02 ;   H114 - C81    - H117  
   341    309    342      1    1.0758e+02    3.2970e+02 ;   H120 - C84    - H123  
   343    310    344      1    1.0758e+02    3.2970e+02 ;   H126 - C87    - H129  
   345    313    346      1    1.0758e+02    3.2970e+02 ;   H132 - C96    - H135  
   347    314    348      1    1.0758e+02    3.2970e+02 ;   H138 - C99    - H141  
   349    316    350      1    1.0758e+02    3.2970e+02 ;   H144 - C105   - H147  
   351    318    352      1    1.0758e+02    3.2970e+02 ;   H150 - C111   - H153  
   351    318    353      1    1.0758e+02    3.2970e+02 ;   H150 - C111   - H156  
   352    318    353      1    1.0758e+02    3.2970e+02 ;   H153 - C111   - H156  
   354    319    355      1    1.0758e+02    3.2970e+02 ;   H159 - C114   - H162  
   354    319    356      1    1.0758e+02    3.2970e+02 ;   H159 - C114   - H165  
   355    319    356      1    1.0758e+02    3.2970e+02 ;   H162 - C114   - H165  
   358    320    359      1    1.0758e+02    3.2970e+02 ;   H171 - C117   - H174  
   358    320    360      1    1.0758e+02    3.2970e+02 ;   H171 - C117   - H177  
   359    320    360      1    1.0758e+02    3.2970e+02 ;   H174 - C117   - H177  
   361    321    362      1    1.0758e+02    3.2970e+02 ;   H180 - C120   - H183  
   361    321    363      1    1.0758e+02    3.2970e+02 ;   H180 - C120   - H186  
   362    321    363      1    1.0758e+02    3.2970e+02 ;   H183 - C120   - H186  
   364    322    365      1    1.0758e+02    3.2970e+02 ;   H189 - C123   - H192  
   364    322    366      1    1.0758e+02    3.2970e+02 ;   H189 - C123   - H195  
   365    322    366      1    1.0758e+02    3.2970e+02 ;   H192 - C123   - H195  
   367    323    368      1    1.0758e+02    3.2970e+02 ;   H198 - C126   - H201  
   367    323    369      1    1.0758e+02    3.2970e+02 ;   H198 - C126   - H204  
   368    323    369      1    1.0758e+02    3.2970e+02 ;   H201 - C126   - H204  
   370    324    371      1    1.0758e+02    3.2970e+02 ;   H207 - C129   - H210  
   370    324    372      1    1.0758e+02    3.2970e+02 ;   H207 - C129   - H213  
   371    324    372      1    1.0758e+02    3.2970e+02 ;   H210 - C129   - H213  

[ dihedrals ] ; propers
; for gromacs 4.5 or higher, using funct 9
;    i      j      k      l   func   phase     kd      pn
     1      3      2    126      9     0.00   0.66944   3 ;     C1-    C2-    O1-   H32
     1      3      2    126      9     0.00   1.04600   1 ;     C1-    C2-    O1-   H32
     1      3      5      7      9     0.00   0.75312   3 ;     C1-    C2-    C3-    C4
     1      3      5      7      9   180.00   0.83680   1 ;     C1-    C2-    C3-    C4
     1      3      5      7      9   180.00   1.04600   2 ;     C1-    C2-    C3-    C4
     1      3      5     31      9     0.00   0.75312   3 ;     C1-    C2-    C3-   C28
     1      3      5     31      9   180.00   0.83680   1 ;     C1-    C2-    C3-   C28
     1      3      5     31      9   180.00   1.04600   2 ;     C1-    C2-    C3-   C28
     1      3      5     32      9     0.00   0.75312   3 ;     C1-    C2-    C3-   C29
     1      3      5     32      9   180.00   0.83680   1 ;     C1-    C2-    C3-   C29
     1      3      5     32      9   180.00   1.04600   2 ;     C1-    C2-    C3-   C29
     1      9      8      7      9     0.00   0.75312   3 ;     C1-    C6-    C5-    C4
     1      9      8      7      9   180.00   0.83680   1 ;     C1-    C6-    C5-    C4
     1      9      8      7      9   180.00   1.04600   2 ;     C1-    C6-    C5-    C4
     1      9      8     13      9     0.00   0.75312   3 ;     C1-    C6-    C5-   C10
     1      9      8     13      9   180.00   0.83680   1 ;     C1-    C6-    C5-   C10
     1      9      8     13      9   180.00   1.04600   2 ;     C1-    C6-    C5-   C10
     1      9      8     28      9     0.00   0.75312   3 ;     C1-    C6-    C5-   C25
     1      9      8     28      9   180.00   0.83680   1 ;     C1-    C6-    C5-   C25
     1      9      8     28      9   180.00   1.04600   2 ;     C1-    C6-    C5-   C25
     2      3      5      7      9     0.00   0.65084   3 ;     O1-    C2-    C3-    C4
     2      3      5     31      9     0.00   0.65084   3 ;     O1-    C2-    C3-   C28
     2      3      5     32      9     0.00   0.65084   3 ;     O1-    C2-    C3-   C29
     3      1      9      8      9     0.00   0.75312   3 ;     C2-    C1-    C6-    C5
     3      1      9      8      9   180.00   0.83680   1 ;     C2-    C1-    C6-    C5
     3      1      9      8      9   180.00   1.04600   2 ;     C2-    C1-    C6-    C5
     3      1      9    101      9     0.00   0.66944   3 ;     C2-    C1-    C6-    H7
     3      1      9    102      9     0.00   0.66944   3 ;     C2-    C1-    C6-    H8
     3      5      7      8      9     0.00   0.75312   3 ;     C2-    C3-    C4-    C5
     3      5      7      8      9   180.00   0.83680   1 ;     C2-    C3-    C4-    C5
     3      5      7      8      9   180.00   1.04600   2 ;     C2-    C3-    C4-    C5
     3      5      7     10      9     0.00   0.75312   3 ;     C2-    C3-    C4-    C7
     3      5      7     10      9   180.00   0.83680   1 ;     C2-    C3-    C4-    C7
     3      5      7     10      9   180.00   1.04600   2 ;     C2-    C3-    C4-    C7
     3      5      7     97      9     0.00   0.66944   3 ;     C2-    C3-    C4-    H3
     3      5     31    133      9     0.00   0.66944   3 ;     C2-    C3-   C28-   H39
     3      5     31    134      9     0.00   0.66944   3 ;     C2-    C3-   C28-   H40
     3      5     31    135      9     0.00   0.66944   3 ;     C2-    C3-   C28-   H41
     3      5     32    136      9     0.00   0.66944   3 ;     C2-    C3-   C29-   H42
     3      5     32    137      9     0.00   0.66944   3 ;     C2-    C3-   C29-   H43
     3      5     32    138      9     0.00   0.66944   3 ;     C2-    C3-   C29-   H44
     4     26     20     19      9     0.00   0.29288   2 ;     N1-   C23-   C17-   C16
     4     26     20     19      9     0.00   0.41840   4 ;     N1-   C23-   C17-   C16
     4     26     20     21      9     0.00   0.29288   2 ;     N1-   C23-   C17-   C18
     4     26     20     21      9     0.00   0.41840   4 ;     N1-   C23-   C17-   C18
     4     26     20     22      9     0.00   0.29288   2 ;     N1-   C23-   C17-   C19
     4     26     20     22      9     0.00   0.41840   4 ;     N1-   C23-   C17-   C19
     4     34     36     37      9     0.00   0.65084   3 ;     N1-   C39-   C43-   O13
     4     34     36    145      9     0.00   0.65084   3 ;     N1-   C39-   C43-   H82
     4     34     36    146      9     0.00   0.65084   3 ;     N1-   C39-   C43-   H85
     5      3      2    126      9     0.00   0.66944   3 ;     C3-    C2-    O1-   H32
     5      3      2    126      9     0.00   1.04600   1 ;     C3-    C2-    O1-   H32
     5      7      8      9      9     0.00   0.75312   3 ;     C3-    C4-    C5-    C6
     5      7      8      9      9   180.00   0.83680   1 ;     C3-    C4-    C5-    C6
     5      7      8      9      9   180.00   1.04600   2 ;     C3-    C4-    C5-    C6
     5      7      8     13      9     0.00   0.75312   3 ;     C3-    C4-    C5-   C10
     5      7      8     13      9   180.00   0.83680   1 ;     C3-    C4-    C5-   C10
     5      7      8     13      9   180.00   1.04600   2 ;     C3-    C4-    C5-   C10
     5      7      8     28      9     0.00   0.75312   3 ;     C3-    C4-    C5-   C25
     5      7      8     28      9   180.00   0.83680   1 ;     C3-    C4-    C5-   C25
     5      7      8     28      9   180.00   1.04600   2 ;     C3-    C4-    C5-   C25
     5      7     10     11      9     0.00   0.75312   3 ;     C3-    C4-    C7-    C8
     5      7     10     11      9   180.00   0.83680   1 ;     C3-    C4-    C7-    C8
     5      7     10     11      9   180.00   1.04600   2 ;     C3-    C4-    C7-    C8
     5      7     10    103      9     0.00   0.66944   3 ;     C3-    C4-    C7-    H9
     5      7     10    104      9     0.00   0.66944   3 ;     C3-    C4-    C7-   H10
     6     26      4     34      9   180.00  10.46000   2 ;     O3-   C23-    N1-   C39
     6     26      4    142      9     0.00   8.36800   1 ;     O3-   C23-    N1-   H71
     6     26      4    142      9   180.00  10.46000   2 ;     O3-   C23-    N1-   H71
     6     26     20     19      9   180.00   0.00000   2 ;     O3-   C23-   C17-   C16
     6     26     20     21      9   180.00   0.00000   2 ;     O3-   C23-   C17-   C18
     6     26     20     22      9   180.00   0.00000   2 ;     O3-   C23-   C17-   C19
     7      5      3    100      9     0.00   0.65084   3 ;     C4-    C3-    C2-    H6
     7      5     31    133      9     0.00   0.66944   3 ;     C4-    C3-   C28-   H39
     7      5     31    134      9     0.00   0.66944   3 ;     C4-    C3-   C28-   H40
     7      5     31    135      9     0.00   0.66944   3 ;     C4-    C3-   C28-   H41
     7      5     32    136      9     0.00   0.66944   3 ;     C4-    C3-   C29-   H42
     7      5     32    137      9     0.00   0.66944   3 ;     C4-    C3-   C29-   H43
     7      5     32    138      9     0.00   0.66944   3 ;     C4-    C3-   C29-   H44
     7      8      9    101      9     0.00   0.66944   3 ;     C4-    C5-    C6-    H7
     7      8      9    102      9     0.00   0.66944   3 ;     C4-    C5-    C6-    H8
     7      8     13     12      9     0.00   0.75312   3 ;     C4-    C5-   C10-    C9
     7      8     13     12      9   180.00   0.83680   1 ;     C4-    C5-   C10-    C9
     7      8     13     12      9   180.00   1.04600   2 ;     C4-    C5-   C10-    C9
     7      8     13     17      9     0.00   0.75312   3 ;     C4-    C5-   C10-   C14
     7      8     13     17      9   180.00   0.83680   1 ;     C4-    C5-   C10-   C14
     7      8     13     17      9   180.00   1.04600   2 ;     C4-    C5-   C10-   C14
     7      8     13     96      9     0.00   0.66944   3 ;     C4-    C5-   C10-    H2
     7      8     28    123      9     0.00   0.66944   3 ;     C4-    C5-   C25-   H29
     7      8     28    124      9     0.00   0.66944   3 ;     C4-    C5-   C25-   H30
     7      8     28    125      9     0.00   0.66944   3 ;     C4-    C5-   C25-   H31
     7     10     11     12      9     0.00   0.75312   3 ;     C4-    C7-    C8-    C9
     7     10     11     12      9   180.00   0.83680   1 ;     C4-    C7-    C8-    C9
     7     10     11     12      9   180.00   1.04600   2 ;     C4-    C7-    C8-    C9
     7     10     11    105      9     0.00   0.66944   3 ;     C4-    C7-    C8-   H11
     7     10     11    106      9     0.00   0.66944   3 ;     C4-    C7-    C8-   H12
     8      7      5     31      9     0.00   0.75312   3 ;     C5-    C4-    C3-   C28
     8      7      5     31      9   180.00   0.83680   1 ;     C5-    C4-    C3-   C28
     8      7      5     31      9   180.00   1.04600   2 ;     C5-    C4-    C3-   C28
     8      7      5     32      9     0.00   0.75312   3 ;     C5-    C4-    C3-   C29
     8      7      5     32      9   180.00   0.83680   1 ;     C5-    C4-    C3-   C29
     8      7      5     32      9   180.00   1.04600   2 ;     C5-    C4-    C3-   C29
     8      7     10     11      9     0.00   0.75312   3 ;     C5-    C4-    C7-    C8
     8      7     10     11      9   180.00   0.83680   1 ;     C5-    C4-    C7-    C8
     8      7     10     11      9   180.00   1.04600   2 ;     C5-    C4-    C7-    C8
     8      7     10    103      9     0.00   0.66944   3 ;     C5-    C4-    C7-    H9
     8      7     10    104      9     0.00   0.66944   3 ;     C5-    C4-    C7-   H10
     8     13     12     11      9     0.00   0.75312   3 ;     C5-   C10-    C9-    C8
     8     13     12     11      9   180.00   0.83680   1 ;     C5-   C10-    C9-    C8
     8     13     12     11      9   180.00   1.04600   2 ;     C5-   C10-    C9-    C8
     8     13     12     14      9     0.00   0.75312   3 ;     C5-   C10-    C9-   C11
     8     13     12     14      9   180.00   0.83680   1 ;     C5-   C10-    C9-   C11
     8     13     12     14      9   180.00   1.04600   2 ;     C5-   C10-    C9-   C11
     8     13     12     27      9     0.00   0.75312   3 ;     C5-   C10-    C9-   C24
     8     13     12     27      9   180.00   0.83680   1 ;     C5-   C10-    C9-   C24
     8     13     12     27      9   180.00   1.04600   2 ;     C5-   C10-    C9-   C24
     8     13     17     16      9     0.00   0.65084   3 ;     C5-   C10-   C14-   C13
     8     13     17    108      9     0.00   0.66944   3 ;     C5-   C10-   C14-   H14
     8     13     17    109      9     0.00   0.66944   3 ;     C5-   C10-   C14-   H15
     9      1      3      2      9     0.00   0.65084   3 ;     C6-    C1-    C2-    O1
     9      1      3      5      9     0.00   0.75312   3 ;     C6-    C1-    C2-    C3
     9      1      3      5      9   180.00   0.83680   1 ;     C6-    C1-    C2-    C3
     9      1      3      5      9   180.00   1.04600   2 ;     C6-    C1-    C2-    C3
     9      1      3    100      9     0.00   0.65084   3 ;     C6-    C1-    C2-    H6
     9      8      7     10      9     0.00   0.75312   3 ;     C6-    C5-    C4-    C7
     9      8      7     10      9   180.00   0.83680   1 ;     C6-    C5-    C4-    C7
     9      8      7     10      9   180.00   1.04600   2 ;     C6-    C5-    C4-    C7
     9      8      7     97      9     0.00   0.66944   3 ;     C6-    C5-    C4-    H3
     9      8     13     12      9     0.00   0.75312   3 ;     C6-    C5-   C10-    C9
     9      8     13     12      9   180.00   0.83680   1 ;     C6-    C5-   C10-    C9
     9      8     13     12      9   180.00   1.04600   2 ;     C6-    C5-   C10-    C9
     9      8     13     17      9     0.00   0.75312   3 ;     C6-    C5-   C10-   C14
     9      8     13     17      9   180.00   0.83680   1 ;     C6-    C5-   C10-   C14
     9      8     13     17      9   180.00   1.04600   2 ;     C6-    C5-   C10-   C14
     9      8     13     96      9     0.00   0.66944   3 ;     C6-    C5-   C10-    H2
     9      8     28    123      9     0.00   0.66944   3 ;     C6-    C5-   C25-   H29
     9      8     28    124      9     0.00   0.66944   3 ;     C6-    C5-   C25-   H30
     9      8     28    125      9     0.00   0.66944   3 ;     C6-    C5-   C25-   H31
    10      7      5     31      9     0.00   0.75312   3 ;     C7-    C4-    C3-   C28
    10      7      5     31      9   180.00   0.83680   1 ;     C7-    C4-    C3-   C28
    10      7      5     31      9   180.00   1.04600   2 ;     C7-    C4-    C3-   C28
    10      7      5     32      9     0.00   0.75312   3 ;     C7-    C4-    C3-   C29
    10      7      5     32      9   180.00   0.83680   1 ;     C7-    C4-    C3-   C29
    10      7      5     32      9   180.00   1.04600   2 ;     C7-    C4-    C3-   C29
    10      7      8     13      9     0.00   0.75312   3 ;     C7-    C4-    C5-   C10
    10      7      8     13      9   180.00   0.83680   1 ;     C7-    C4-    C5-   C10
    10      7      8     13      9   180.00   1.04600   2 ;     C7-    C4-    C5-   C10
    10      7      8     28      9     0.00   0.75312   3 ;     C7-    C4-    C5-   C25
    10      7      8     28      9   180.00   0.83680   1 ;     C7-    C4-    C5-   C25
    10      7      8     28      9   180.00   1.04600   2 ;     C7-    C4-    C5-   C25
    10     11     12     13      9     0.00   0.75312   3 ;     C7-    C8-    C9-   C10
    10     11     12     13      9   180.00   0.83680   1 ;     C7-    C8-    C9-   C10
    10     11     12     13      9   180.00   1.04600   2 ;     C7-    C8-    C9-   C10
    10     11     12     14      9     0.00   0.75312   3 ;     C7-    C8-    C9-   C11
    10     11     12     14      9   180.00   0.83680   1 ;     C7-    C8-    C9-   C11
    10     11     12     14      9   180.00   1.04600   2 ;     C7-    C8-    C9-   C11
    10     11     12     27      9     0.00   0.75312   3 ;     C7-    C8-    C9-   C24
    10     11     12     27      9   180.00   0.83680   1 ;     C7-    C8-    C9-   C24
    10     11     12     27      9   180.00   1.04600   2 ;     C7-    C8-    C9-   C24
    11     10      7     97      9     0.00   0.66944   3 ;     C8-    C7-    C4-    H3
    11     12     13     17      9     0.00   0.75312   3 ;     C8-    C9-   C10-   C14
    11     12     13     17      9   180.00   0.83680   1 ;     C8-    C9-   C10-   C14
    11     12     13     17      9   180.00   1.04600   2 ;     C8-    C9-   C10-   C14
    11     12     13     96      9     0.00   0.66944   3 ;     C8-    C9-   C10-    H2
    11     12     14     15      9     0.00   0.65084   3 ;     C8-    C9-   C11-   C12
    11     12     14     18      9     0.00   0.75312   3 ;     C8-    C9-   C11-   C15
    11     12     14     18      9   180.00   0.83680   1 ;     C8-    C9-   C11-   C15
    11     12     14     18      9   180.00   1.04600   2 ;     C8-    C9-   C11-   C15
    11     12     14     30      9     0.00   0.75312   3 ;     C8-    C9-   C11-   C27
    11     12     14     30      9   180.00   0.83680   1 ;     C8-    C9-   C11-   C27
    11     12     14     30      9   180.00   1.04600   2 ;     C8-    C9-   C11-   C27
    11     12     27    120      9     0.00   0.66944   3 ;     C8-    C9-   C24-   H26
    11     12     27    121      9     0.00   0.66944   3 ;     C8-    C9-   C24-   H27
    11     12     27    122      9     0.00   0.66944   3 ;     C8-    C9-   C24-   H28
    12     11     10    103      9     0.00   0.66944   3 ;     C9-    C8-    C7-    H9
    12     11     10    104      9     0.00   0.66944   3 ;     C9-    C8-    C7-   H10
    12     13      8     28      9     0.00   0.75312   3 ;     C9-   C10-    C5-   C25
    12     13      8     28      9   180.00   0.83680   1 ;     C9-   C10-    C5-   C25
    12     13      8     28      9   180.00   1.04600   2 ;     C9-   C10-    C5-   C25
    12     13     17     16      9     0.00   0.65084   3 ;     C9-   C10-   C14-   C13
    12     13     17    108      9     0.00   0.66944   3 ;     C9-   C10-   C14-   H14
    12     13     17    109      9     0.00   0.66944   3 ;     C9-   C10-   C14-   H15
    12     14     15     16      9     0.00   0.00000   0 ;     C9-   C11-   C12-   C13
    12     14     15     21      9     0.00   0.00000   0 ;     C9-   C11-   C12-   C18
    12     14     18     19      9     0.00   0.75312   3 ;     C9-   C11-   C15-   C16
    12     14     18     19      9   180.00   0.83680   1 ;     C9-   C11-   C15-   C16
    12     14     18     19      9   180.00   1.04600   2 ;     C9-   C11-   C15-   C16
    12     14     18    110      9     0.00   0.66944   3 ;     C9-   C11-   C15-   H16
    12     14     18    111      9     0.00   0.66944   3 ;     C9-   C11-   C15-   H17
    12     14     30    130      9     0.00   0.66944   3 ;     C9-   C11-   C27-   H36
    12     14     30    131      9     0.00   0.66944   3 ;     C9-   C11-   C27-   H37
    12     14     30    132      9     0.00   0.66944   3 ;     C9-   C11-   C27-   H38
    13      8      7     97      9     0.00   0.66944   3 ;    C10-    C5-    C4-    H3
    13      8      9    101      9     0.00   0.66944   3 ;    C10-    C5-    C6-    H7
    13      8      9    102      9     0.00   0.66944   3 ;    C10-    C5-    C6-    H8
    13      8     28    123      9     0.00   0.66944   3 ;    C10-    C5-   C25-   H29
    13      8     28    124      9     0.00   0.66944   3 ;    C10-    C5-   C25-   H30
    13      8     28    125      9     0.00   0.66944   3 ;    C10-    C5-   C25-   H31
    13     12     11    105      9     0.00   0.66944   3 ;    C10-    C9-    C8-   H11
    13     12     11    106      9     0.00   0.66944   3 ;    C10-    C9-    C8-   H12
    13     12     14     15      9     0.00   0.65084   3 ;    C10-    C9-   C11-   C12
    13     12     14     18      9     0.00   0.75312   3 ;    C10-    C9-   C11-   C15
    13     12     14     18      9   180.00   0.83680   1 ;    C10-    C9-   C11-   C15
    13     12     14     18      9   180.00   1.04600   2 ;    C10-    C9-   C11-   C15
    13     12     14     30      9     0.00   0.75312   3 ;    C10-    C9-   C11-   C27
    13     12     14     30      9   180.00   0.83680   1 ;    C10-    C9-   C11-   C27
    13     12     14     30      9   180.00   1.04600   2 ;    C10-    C9-   C11-   C27
    13     12     27    120      9     0.00   0.66944   3 ;    C10-    C9-   C24-   H26
    13     12     27    121      9     0.00   0.66944   3 ;    C10-    C9-   C24-   H27
    13     12     27    122      9     0.00   0.66944   3 ;    C10-    C9-   C24-   H28
    13     17     16     15      9     0.00   0.00000   0 ;    C10-   C14-   C13-   C12
    13     17     16    107      9     0.00   0.00000   0 ;    C10-   C14-   C13-   H13
    14     12     11    105      9     0.00   0.66944   3 ;    C11-    C9-    C8-   H11
    14     12     11    106      9     0.00   0.66944   3 ;    C11-    C9-    C8-   H12
    14     12     13     17      9     0.00   0.75312   3 ;    C11-    C9-   C10-   C14
    14     12     13     17      9   180.00   0.83680   1 ;    C11-    C9-   C10-   C14
    14     12     13     17      9   180.00   1.04600   2 ;    C11-    C9-   C10-   C14
    14     12     13     96      9     0.00   0.66944   3 ;    C11-    C9-   C10-    H2
    14     12     27    120      9     0.00   0.66944   3 ;    C11-    C9-   C24-   H26
    14     12     27    121      9     0.00   0.66944   3 ;    C11-    C9-   C24-   H27
    14     12     27    122      9     0.00   0.66944   3 ;    C11-    C9-   C24-   H28
    14     15     16     17      9   180.00   7.94960   1 ;    C11-   C12-   C13-   C14
    14     15     16     17      9   180.00  27.82360   2 ;    C11-   C12-   C13-   C14
    14     15     16    107      9   180.00  27.82360   2 ;    C11-   C12-   C13-   H13
    14     15     21     20      9     0.00   0.00000   0 ;    C11-   C12-   C18-   C17
    14     15     21     25      9     0.00   0.00000   0 ;    C11-   C12-   C18-   C22
    14     15     21     95      9     0.00   0.00000   0 ;    C11-   C12-   C18-    H1
    14     18     19     20      9     0.00   0.75312   3 ;    C11-   C15-   C16-   C17
    14     18     19     20      9   180.00   0.83680   1 ;    C11-   C15-   C16-   C17
    14     18     19     20      9   180.00   1.04600   2 ;    C11-   C15-   C16-   C17
    14     18     19    112      9     0.00   0.66944   3 ;    C11-   C15-   C16-   H18
    14     18     19    113      9     0.00   0.66944   3 ;    C11-   C15-   C16-   H19
    15     14     12     27      9     0.00   0.65084   3 ;    C12-   C11-    C9-   C24
    15     14     18     19      9     0.00   0.65084   3 ;    C12-   C11-   C15-   C16
    15     14     18    110      9     0.00   0.65084   3 ;    C12-   C11-   C15-   H16
    15     14     18    111      9     0.00   0.65084   3 ;    C12-   C11-   C15-   H17
    15     14     30    130      9     0.00   0.65084   3 ;    C12-   C11-   C27-   H36
    15     14     30    131      9     0.00   0.65084   3 ;    C12-   C11-   C27-   H37
    15     14     30    132      9     0.00   0.65084   3 ;    C12-   C11-   C27-   H38
    15     16     17    108      9     0.00   0.00000   0 ;    C12-   C13-   C14-   H14
    15     16     17    108      9     0.00   4.81160   1 ;    C12-   C13-   C14-   H14
    15     16     17    108      9   180.00   1.58992   3 ;    C12-   C13-   C14-   H14
    15     16     17    109      9     0.00   0.00000   0 ;    C12-   C13-   C14-   H15
    15     16     17    109      9     0.00   4.81160   1 ;    C12-   C13-   C14-   H15
    15     16     17    109      9   180.00   1.58992   3 ;    C12-   C13-   C14-   H15
    15     21     20     19      9     0.00   0.65084   3 ;    C12-   C18-   C17-   C16
    15     21     20     22      9     0.00   0.65084   3 ;    C12-   C18-   C17-   C19
    15     21     20     26      9     0.00   0.65084   3 ;    C12-   C18-   C17-   C23
    15     21     25     24      9     0.00   0.65084   3 ;    C12-   C18-   C22-   C21
    15     21     25    118      9     0.00   0.65084   3 ;    C12-   C18-   C22-   H24
    15     21     25    119      9     0.00   0.65084   3 ;    C12-   C18-   C22-   H25
    16     15     14     18      9     0.00   0.00000   0 ;    C13-   C12-   C11-   C15
    16     15     14     30      9     0.00   0.00000   0 ;    C13-   C12-   C11-   C27
    16     15     21     20      9     0.00   0.00000   0 ;    C13-   C12-   C18-   C17
    16     15     21     25      9     0.00   0.00000   0 ;    C13-   C12-   C18-   C22
    16     15     21     95      9     0.00   0.00000   0 ;    C13-   C12-   C18-    H1
    16     15     21     95      9     0.00   4.81160   1 ;    C13-   C12-   C18-    H1
    16     15     21     95      9   180.00   1.58992   3 ;    C13-   C12-   C18-    H1
    16     17     13     96      9     0.00   0.65084   3 ;    C13-   C14-   C10-    H2
    17     13      8     28      9     0.00   0.75312   3 ;    C14-   C10-    C5-   C25
    17     13      8     28      9   180.00   0.83680   1 ;    C14-   C10-    C5-   C25
    17     13      8     28      9   180.00   1.04600   2 ;    C14-   C10-    C5-   C25
    17     13     12     27      9     0.00   0.75312   3 ;    C14-   C10-    C9-   C24
    17     13     12     27      9   180.00   0.83680   1 ;    C14-   C10-    C9-   C24
    17     13     12     27      9   180.00   1.04600   2 ;    C14-   C10-    C9-   C24
    17     16     15     21      9   180.00   7.94960   1 ;    C14-   C13-   C12-   C18
    17     16     15     21      9   180.00  27.82360   2 ;    C14-   C13-   C12-   C18
    18     14     12     27      9     0.00   0.75312   3 ;    C15-   C11-    C9-   C24
    18     14     12     27      9   180.00   0.83680   1 ;    C15-   C11-    C9-   C24
    18     14     12     27      9   180.00   1.04600   2 ;    C15-   C11-    C9-   C24
    18     14     15     21      9     0.00   0.00000   0 ;    C15-   C11-   C12-   C18
    18     14     30    130      9     0.00   0.66944   3 ;    C15-   C11-   C27-   H36
    18     14     30    131      9     0.00   0.66944   3 ;    C15-   C11-   C27-   H37
    18     14     30    132      9     0.00   0.66944   3 ;    C15-   C11-   C27-   H38
    18     19     20     21      9     0.00   0.75312   3 ;    C15-   C16-   C17-   C18
    18     19     20     21      9   180.00   0.83680   1 ;    C15-   C16-   C17-   C18
    18     19     20     21      9   180.00   1.04600   2 ;    C15-   C16-   C17-   C18
    18     19     20     22      9     0.00   0.75312   3 ;    C15-   C16-   C17-   C19
    18     19     20     22      9   180.00   0.83680   1 ;    C15-   C16-   C17-   C19
    18     19     20     22      9   180.00   1.04600   2 ;    C15-   C16-   C17-   C19
    18     19     20     26      9     0.00   0.65084   3 ;    C15-   C16-   C17-   C23
    19     18     14     30      9     0.00   0.75312   3 ;    C16-   C15-   C11-   C27
    19     18     14     30      9   180.00   0.83680   1 ;    C16-   C15-   C11-   C27
    19     18     14     30      9   180.00   1.04600   2 ;    C16-   C15-   C11-   C27
    19     20     21     25      9     0.00   0.75312   3 ;    C16-   C17-   C18-   C22
    19     20     21     25      9   180.00   0.83680   1 ;    C16-   C17-   C18-   C22
    19     20     21     25      9   180.00   1.04600   2 ;    C16-   C17-   C18-   C22
    19     20     21     95      9     0.00   0.66944   3 ;    C16-   C17-   C18-    H1
    19     20     22     23      9     0.00   0.75312   3 ;    C16-   C17-   C19-   C20
    19     20     22     23      9   180.00   0.83680   1 ;    C16-   C17-   C19-   C20
    19     20     22     23      9   180.00   1.04600   2 ;    C16-   C17-   C19-   C20
    19     20     22    114      9     0.00   0.66944   3 ;    C16-   C17-   C19-   H20
    19     20     22    115      9     0.00   0.66944   3 ;    C16-   C17-   C19-   H21
    20     19     18    110      9     0.00   0.66944   3 ;    C17-   C16-   C15-   H16
    20     19     18    111      9     0.00   0.66944   3 ;    C17-   C16-   C15-   H17
    20     21     25     24      9     0.00   0.75312   3 ;    C17-   C18-   C22-   C21
    20     21     25     24      9   180.00   0.83680   1 ;    C17-   C18-   C22-   C21
    20     21     25     24      9   180.00   1.04600   2 ;    C17-   C18-   C22-   C21
    20     21     25    118      9     0.00   0.66944   3 ;    C17-   C18-   C22-   H24
    20     21     25    119      9     0.00   0.66944   3 ;    C17-   C18-   C22-   H25
    20     22     23     24      9     0.00   0.75312   3 ;    C17-   C19-   C20-   C21
    20     22     23     24      9   180.00   0.83680   1 ;    C17-   C19-   C20-   C21
    20     22     23     24      9   180.00   1.04600   2 ;    C17-   C19-   C20-   C21
    20     22     23    116      9     0.00   0.66944   3 ;    C17-   C19-   C20-   H22
    20     22     23    117      9     0.00   0.66944   3 ;    C17-   C19-   C20-   H23
    20     26      4     34      9     0.00   0.00000   0 ;    C17-   C23-    N1-   C39
    20     26      4     34      9   180.00   6.27600   1 ;    C17-   C23-    N1-   C39
    20     26      4    142      9   180.00  10.46000   2 ;    C17-   C23-    N1-   H71
    21     15     14     30      9     0.00   0.00000   0 ;    C18-   C12-   C11-   C27
    21     15     16    107      9   180.00  27.82360   2 ;    C18-   C12-   C13-   H13
    21     20     19    112      9     0.00   0.66944   3 ;    C18-   C17-   C16-   H18
    21     20     19    113      9     0.00   0.66944   3 ;    C18-   C17-   C16-   H19
    21     20     22     23      9     0.00   0.75312   3 ;    C18-   C17-   C19-   C20
    21     20     22     23      9   180.00   0.83680   1 ;    C18-   C17-   C19-   C20
    21     20     22     23      9   180.00   1.04600   2 ;    C18-   C17-   C19-   C20
    21     20     22    114      9     0.00   0.66944   3 ;    C18-   C17-   C19-   H20
    21     20     22    115      9     0.00   0.66944   3 ;    C18-   C17-   C19-   H21
    21     25     24     23      9     0.00   0.75312   3 ;    C18-   C22-   C21-   C20
    21     25     24     23      9   180.00   0.83680   1 ;    C18-   C22-   C21-   C20
    21     25     24     23      9   180.00   1.04600   2 ;    C18-   C22-   C21-   C20
    21     25     24     29      9     0.00   0.75312   3 ;    C18-   C22-   C21-   C26
    21     25     24     29      9   180.00   0.83680   1 ;    C18-   C22-   C21-   C26
    21     25     24     29      9   180.00   1.04600   2 ;    C18-   C22-   C21-   C26
    21     25     24     33      9     0.00   0.75312   3 ;    C18-   C22-   C21-   C30
    21     25     24     33      9   180.00   0.83680   1 ;    C18-   C22-   C21-   C30
    21     25     24     33      9   180.00   1.04600   2 ;    C18-   C22-   C21-   C30
    22     20     19    112      9     0.00   0.66944   3 ;    C19-   C17-   C16-   H18
    22     20     19    113      9     0.00   0.66944   3 ;    C19-   C17-   C16-   H19
    22     20     21     25      9     0.00   0.75312   3 ;    C19-   C17-   C18-   C22
    22     20     21     25      9   180.00   0.83680   1 ;    C19-   C17-   C18-   C22
    22     20     21     25      9   180.00   1.04600   2 ;    C19-   C17-   C18-   C22
    22     20     21     95      9     0.00   0.66944   3 ;    C19-   C17-   C18-    H1
    22     23     24     25      9     0.00   0.75312   3 ;    C19-   C20-   C21-   C22
    22     23     24     25      9   180.00   0.83680   1 ;    C19-   C20-   C21-   C22
    22     23     24     25      9   180.00   1.04600   2 ;    C19-   C20-   C21-   C22
    22     23     24     29      9     0.00   0.75312   3 ;    C19-   C20-   C21-   C26
    22     23     24     29      9   180.00   0.83680   1 ;    C19-   C20-   C21-   C26
    22     23     24     29      9   180.00   1.04600   2 ;    C19-   C20-   C21-   C26
    22     23     24     33      9     0.00   0.75312   3 ;    C19-   C20-   C21-   C30
    22     23     24     33      9   180.00   0.83680   1 ;    C19-   C20-   C21-   C30
    22     23     24     33      9   180.00   1.04600   2 ;    C19-   C20-   C21-   C30
    23     22     20     26      9     0.00   0.65084   3 ;    C20-   C19-   C17-   C23
    23     24     25    118      9     0.00   0.66944   3 ;    C20-   C21-   C22-   H24
    23     24     25    119      9     0.00   0.66944   3 ;    C20-   C21-   C22-   H25
    23     24     29    127      9     0.00   0.66944   3 ;    C20-   C21-   C26-   H33
    23     24     29    128      9     0.00   0.66944   3 ;    C20-   C21-   C26-   H34
    23     24     29    129      9     0.00   0.66944   3 ;    C20-   C21-   C26-   H35
    23     24     33    139      9     0.00   0.66944   3 ;    C20-   C21-   C30-   H45
    23     24     33    140      9     0.00   0.66944   3 ;    C20-   C21-   C30-   H46
    23     24     33    141      9     0.00   0.66944   3 ;    C20-   C21-   C30-   H47
    24     23     22    114      9     0.00   0.66944   3 ;    C21-   C20-   C19-   H20
    24     23     22    115      9     0.00   0.66944   3 ;    C21-   C20-   C19-   H21
    24     25     21     95      9     0.00   0.66944   3 ;    C21-   C22-   C18-    H1
    25     21     20     26      9     0.00   0.65084   3 ;    C22-   C18-   C17-   C23
    25     24     23    116      9     0.00   0.66944   3 ;    C22-   C21-   C20-   H22
    25     24     23    117      9     0.00   0.66944   3 ;    C22-   C21-   C20-   H23
    25     24     29    127      9     0.00   0.66944   3 ;    C22-   C21-   C26-   H33
    25     24     29    128      9     0.00   0.66944   3 ;    C22-   C21-   C26-   H34
    25     24     29    129      9     0.00   0.66944   3 ;    C22-   C21-   C26-   H35
    25     24     33    139      9     0.00   0.66944   3 ;    C22-   C21-   C30-   H45
    25     24     33    140      9     0.00   0.66944   3 ;    C22-   C21-   C30-   H46
    25     24     33    141      9     0.00   0.66944   3 ;    C22-   C21-   C30-   H47
    26      4     34     36      9     0.00   0.00000   0 ;    C23-    N1-   C39-   C43
    26      4     34     36      9     0.00   2.21752   1 ;    C23-    N1-   C39-   C43
    26      4     34     36      9   180.00   0.62760   3 ;    C23-    N1-   C39-   C43
    26      4     34     36      9   180.00   2.09200   4 ;    C23-    N1-   C39-   C43
    26      4     34    143      9     0.00   0.00000   0 ;    C23-    N1-   C39-   H76
    26      4     34    144      9     0.00   0.00000   0 ;    C23-    N1-   C39-   H79
    26     20     19    112      9     0.00   0.65084   3 ;    C23-   C17-   C16-   H18
    26     20     19    113      9     0.00   0.65084   3 ;    C23-   C17-   C16-   H19
    26     20     21     95      9     0.00   0.65084   3 ;    C23-   C17-   C18-    H1
    26     20     22    114      9     0.00   0.65084   3 ;    C23-   C17-   C19-   H20
    26     20     22    115      9     0.00   0.65084   3 ;    C23-   C17-   C19-   H21
    27     12     11    105      9     0.00   0.66944   3 ;    C24-    C9-    C8-   H11
    27     12     11    106      9     0.00   0.66944   3 ;    C24-    C9-    C8-   H12
    27     12     13     96      9     0.00   0.66944   3 ;    C24-    C9-   C10-    H2
    27     12     14     30      9     0.00   0.75312   3 ;    C24-    C9-   C11-   C27
    27     12     14     30      9   180.00   0.83680   1 ;    C24-    C9-   C11-   C27
    27     12     14     30      9   180.00   1.04600   2 ;    C24-    C9-   C11-   C27
    28      8      7     97      9     0.00   0.66944   3 ;    C25-    C5-    C4-    H3
    28      8      9    101      9     0.00   0.66944   3 ;    C25-    C5-    C6-    H7
    28      8      9    102      9     0.00   0.66944   3 ;    C25-    C5-    C6-    H8
    28      8     13     96      9     0.00   0.66944   3 ;    C25-    C5-   C10-    H2
    29     24     23    116      9     0.00   0.66944   3 ;    C26-   C21-   C20-   H22
    29     24     23    117      9     0.00   0.66944   3 ;    C26-   C21-   C20-   H23
    29     24     25    118      9     0.00   0.66944   3 ;    C26-   C21-   C22-   H24
    29     24     25    119      9     0.00   0.66944   3 ;    C26-   C21-   C22-   H25
    29     24     33    139      9     0.00   0.66944   3 ;    C26-   C21-   C30-   H45
    29     24     33    140      9     0.00   0.66944   3 ;    C26-   C21-   C30-   H46
    29     24     33    141      9     0.00   0.66944   3 ;    C26-   C21-   C30-   H47
    30     14     18    110      9     0.00   0.66944   3 ;    C27-   C11-   C15-   H16
    30     14     18    111      9     0.00   0.66944   3 ;    C27-   C11-   C15-   H17
    31      5      3    100      9     0.00   0.65084   3 ;    C28-    C3-    C2-    H6
    31      5      7     97      9     0.00   0.66944   3 ;    C28-    C3-    C4-    H3
    31      5     32    136      9     0.00   0.66944   3 ;    C28-    C3-   C29-   H42
    31      5     32    137      9     0.00   0.66944   3 ;    C28-    C3-   C29-   H43
    31      5     32    138      9     0.00   0.66944   3 ;    C28-    C3-   C29-   H44
    32      5      3    100      9     0.00   0.65084   3 ;    C29-    C3-    C2-    H6
    32      5      7     97      9     0.00   0.66944   3 ;    C29-    C3-    C4-    H3
    32      5     31    133      9     0.00   0.66944   3 ;    C29-    C3-   C28-   H39
    32      5     31    134      9     0.00   0.66944   3 ;    C29-    C3-   C28-   H40
    32      5     31    135      9     0.00   0.66944   3 ;    C29-    C3-   C28-   H41
    33     24     23    116      9     0.00   0.66944   3 ;    C30-   C21-   C20-   H22
    33     24     23    117      9     0.00   0.66944   3 ;    C30-   C21-   C20-   H23
    33     24     25    118      9     0.00   0.66944   3 ;    C30-   C21-   C22-   H24
    33     24     25    119      9     0.00   0.66944   3 ;    C30-   C21-   C22-   H25
    33     24     29    127      9     0.00   0.66944   3 ;    C30-   C21-   C26-   H33
    33     24     29    128      9     0.00   0.66944   3 ;    C30-   C21-   C26-   H34
    33     24     29    129      9     0.00   0.66944   3 ;    C30-   C21-   C26-   H35
    34     36     37     38      9     0.00   1.60247   3 ;    C39-   C43-   O13-   C46
    34     36     37     38      9   180.00   0.41840   2 ;    C39-   C43-   O13-   C46
    35     94     93     92      9     0.00   0.65084   3 ;     N2-   C38-   C37-   O12
    35     94     93    208      9     0.00   0.65084   3 ;     N2-   C38-   C37-   H67
    35     94     93    209      9     0.00   0.65084   3 ;     N2-   C38-   C37-   H68
    35    236    230    229      9     0.00   0.29288   2 ;     N2-  C107-   C89-   C86
    35    236    230    229      9     0.00   0.41840   4 ;     N2-  C107-   C89-   C86
    35    236    230    231      9     0.00   0.29288   2 ;     N2-  C107-   C89-   C92
    35    236    230    231      9     0.00   0.41840   4 ;     N2-  C107-   C89-   C92
    35    236    230    232      9     0.00   0.29288   2 ;     N2-  C107-   C89-   C95
    35    236    230    232      9     0.00   0.41840   4 ;     N2-  C107-   C89-   C95
    36     34      4    142      9     0.00   0.00000   0 ;    C43-   C39-    N1-   H71
    36     37     38     39      9     0.00   1.60247   3 ;    C43-   O13-   C46-   C49
    36     37     38     39      9   180.00   0.41840   2 ;    C43-   O13-   C46-   C49
    36     37     38    147      9     0.00   1.60387   3 ;    C43-   O13-   C46-   H88
    36     37     38    148      9     0.00   1.60387   3 ;    C43-   O13-   C46-   H91
    37     36     34    143      9     0.00   0.00000   0 ;    O13-   C43-   C39-   H76
    37     36     34    143      9     0.00   1.04600   1 ;    O13-   C43-   C39-   H76
    37     36     34    144      9     0.00   0.00000   0 ;    O13-   C43-   C39-   H79
    37     36     34    144      9     0.00   1.04600   1 ;    O13-   C43-   C39-   H79
    37     38     39     40      9     0.00   0.60250   3 ;    O13-   C46-   C49-    O2
    37     38     39     40      9     0.00   4.91620   2 ;    O13-   C46-   C49-    O2
    37     38     39    149      9     0.00   0.00000   0 ;    O13-   C46-   C49-   H94
    37     38     39    149      9     0.00   1.04600   1 ;    O13-   C46-   C49-   H94
    37     38     39    150      9     0.00   0.00000   0 ;    O13-   C46-   C49-   H97
    37     38     39    150      9     0.00   1.04600   1 ;    O13-   C46-   C49-   H97
    38     37     36    145      9     0.00   1.60387   3 ;    C46-   O13-   C43-   H82
    38     37     36    146      9     0.00   1.60387   3 ;    C46-   O13-   C43-   H85
    38     39     40     41      9     0.00   1.60247   3 ;    C46-   C49-    O2-   C52
    38     39     40     41      9   180.00   0.41840   2 ;    C46-   C49-    O2-   C52
    39     40     41     42      9     0.00   1.60247   3 ;    C49-    O2-   C52-   C55
    39     40     41     42      9   180.00   0.41840   2 ;    C49-    O2-   C52-   C55
    39     40     41    151      9     0.00   1.60387   3 ;    C49-    O2-   C52-  H100
    39     40     41    152      9     0.00   1.60387   3 ;    C49-    O2-   C52-  H103
    40     39     38    147      9     0.00   0.00000   0 ;     O2-   C49-   C46-   H88
    40     39     38    147      9     0.00   1.04600   1 ;     O2-   C49-   C46-   H88
    40     39     38    148      9     0.00   0.00000   0 ;     O2-   C49-   C46-   H91
    40     39     38    148      9     0.00   1.04600   1 ;     O2-   C49-   C46-   H91
    40     41     42     43      9     0.00   0.60250   3 ;     O2-   C52-   C55-   O16
    40     41     42     43      9     0.00   4.91620   2 ;     O2-   C52-   C55-   O16
    40     41     42    153      9     0.00   0.00000   0 ;     O2-   C52-   C55-  H106
    40     41     42    153      9     0.00   1.04600   1 ;     O2-   C52-   C55-  H106
    40     41     42    154      9     0.00   0.00000   0 ;     O2-   C52-   C55-  H109
    40     41     42    154      9     0.00   1.04600   1 ;     O2-   C52-   C55-  H109
    41     40     39    149      9     0.00   1.60387   3 ;    C52-    O2-   C49-   H94
    41     40     39    150      9     0.00   1.60387   3 ;    C52-    O2-   C49-   H97
    41     42     43     44      9     0.00   1.60247   3 ;    C52-   C55-   O16-   C58
    41     42     43     44      9   180.00   0.41840   2 ;    C52-   C55-   O16-   C58
    42     43     44     45      9     0.00   1.60247   3 ;    C55-   O16-   C58-   C61
    42     43     44     45      9   180.00   0.41840   2 ;    C55-   O16-   C58-   C61
    42     43     44    155      9     0.00   1.60387   3 ;    C55-   O16-   C58-  H112
    42     43     44    156      9     0.00   1.60387   3 ;    C55-   O16-   C58-  H115
    43     42     41    151      9     0.00   0.00000   0 ;    O16-   C55-   C52-  H100
    43     42     41    151      9     0.00   1.04600   1 ;    O16-   C55-   C52-  H100
    43     42     41    152      9     0.00   0.00000   0 ;    O16-   C55-   C52-  H103
    43     42     41    152      9     0.00   1.04600   1 ;    O16-   C55-   C52-  H103
    43     44     45     46      9     0.00   0.60250   3 ;    O16-   C58-   C61-    O4
    43     44     45     46      9     0.00   4.91620   2 ;    O16-   C58-   C61-    O4
    43     44     45    157      9     0.00   0.00000   0 ;    O16-   C58-   C61-  H118
    43     44     45    157      9     0.00   1.04600   1 ;    O16-   C58-   C61-  H118
    43     44     45    158      9     0.00   0.00000   0 ;    O16-   C58-   C61-  H121
    43     44     45    158      9     0.00   1.04600   1 ;    O16-   C58-   C61-  H121
    44     43     42    153      9     0.00   1.60387   3 ;    C58-   O16-   C55-  H106
    44     43     42    154      9     0.00   1.60387   3 ;    C58-   O16-   C55-  H109
    44     45     46     47      9     0.00   1.60247   3 ;    C58-   C61-    O4-   C64
    44     45     46     47      9   180.00   0.41840   2 ;    C58-   C61-    O4-   C64
    45     46     47     48      9     0.00   1.60247   3 ;    C61-    O4-   C64-   C67
    45     46     47     48      9   180.00   0.41840   2 ;    C61-    O4-   C64-   C67
    45     46     47    159      9     0.00   1.60387   3 ;    C61-    O4-   C64-  H124
    45     46     47    160      9     0.00   1.60387   3 ;    C61-    O4-   C64-  H127
    46     45     44    155      9     0.00   0.00000   0 ;     O4-   C61-   C58-  H112
    46     45     44    155      9     0.00   1.04600   1 ;     O4-   C61-   C58-  H112
    46     45     44    156      9     0.00   0.00000   0 ;     O4-   C61-   C58-  H115
    46     45     44    156      9     0.00   1.04600   1 ;     O4-   C61-   C58-  H115
    46     47     48     49      9     0.00   0.65084   3 ;     O4-   C64-   C67-    N3
    46     47     48    161      9     0.00   0.00000   0 ;     O4-   C64-   C67-  H130
    46     47     48    161      9     0.00   1.04600   1 ;     O4-   C64-   C67-  H130
    46     47     48    162      9     0.00   0.00000   0 ;     O4-   C64-   C67-  H133
    46     47     48    162      9     0.00   1.04600   1 ;     O4-   C64-   C67-  H133
    47     46     45    157      9     0.00   1.60387   3 ;    C64-    O4-   C61-  H118
    47     46     45    158      9     0.00   1.60387   3 ;    C64-    O4-   C61-  H121
    47     48     49     50      9     0.00   0.00000   0 ;    C64-   C67-    N3-    N4
    47     48     49     52      9     0.00   0.00000   0 ;    C64-   C67-    N3-   C70
    48     49     50     51      9   180.00  20.08320   2 ;    C67-    N3-    N4-    N5
    48     49     52     53      9   180.00   7.11280   2 ;    C67-    N3-   C70-   C73
    48     49     52    163      9   180.00   7.11280   2 ;    C67-    N3-   C70-  H136
    49     48     47    159      9     0.00   0.65084   3 ;     N3-   C67-   C64-  H124
    49     48     47    160      9     0.00   0.65084   3 ;     N3-   C67-   C64-  H127
    49     50     51     53      9   180.00  16.73600   2 ;     N3-    N4-    N5-   C73
    49     52     53     51      9   180.00  16.73600   2 ;     N3-   C70-   C73-    N5
    49     52     53     54      9   180.00  16.73600   2 ;     N3-   C70-   C73-   C76
    50     49     48    161      9     0.00   0.00000   0 ;     N4-    N3-   C67-  H130
    50     49     48    162      9     0.00   0.00000   0 ;     N4-    N3-   C67-  H133
    50     49     52     53      9   180.00   7.11280   2 ;     N4-    N3-   C70-   C73
    50     49     52    163      9   180.00   7.11280   2 ;     N4-    N3-   C70-  H136
    50     51     53     52      9   180.00  19.87400   2 ;     N4-    N5-   C73-   C70
    50     51     53     54      9   180.00  19.87400   2 ;     N4-    N5-   C73-   C76
    51     50     49     52      9   180.00  20.08320   2 ;     N5-    N4-    N3-   C70
    51     53     52    163      9   180.00  16.73600   2 ;     N5-   C73-   C70-  H136
    51     53     54     74      9     0.00   0.00000   0 ;     N5-   C73-   C76-    N9
    51     53     54    187      9     0.00   0.00000   0 ;     N5-   C73-   C76-  H208
    51     53     54    188      9     0.00   0.00000   0 ;     N5-   C73-   C76-  H211
    52     49     48    161      9     0.00   0.00000   0 ;    C70-    N3-   C67-  H130
    52     49     48    162      9     0.00   0.00000   0 ;    C70-    N3-   C67-  H133
    52     53     54     74      9     0.00   0.00000   0 ;    C70-   C73-   C76-    N9
    52     53     54    187      9     0.00   0.00000   0 ;    C70-   C73-   C76-  H208
    52     53     54    188      9     0.00   0.00000   0 ;    C70-   C73-   C76-  H211
    53     54     74     55      9     0.00   1.25520   3 ;    C73-   C76-    N9-   C79
    53     54     74     75      9     0.00   1.25520   3 ;    C73-   C76-    N9-  C115
    54     53     52    163      9   180.00  16.73600   2 ;    C76-   C73-   C70-  H136
    54     74     55     56      9     0.00   1.25520   3 ;    C76-    N9-   C79-   C82
    54     74     55    164      9     0.00   1.25520   3 ;    C76-    N9-   C79-  H139
    54     74     55    165      9     0.00   1.25520   3 ;    C76-    N9-   C79-  H142
    54     74     75     76      9     0.00   1.25520   3 ;    C76-    N9-  C115-  C118
    54     74     75    189      9     0.00   1.25520   3 ;    C76-    N9-  C115-   H48
    54     74     75    190      9     0.00   1.25520   3 ;    C76-    N9-  C115-   H49
    55     56     57     60      9   180.00  16.73600   2 ;    C79-   C82-   C85-    N8
    55     56     57    166      9   180.00  16.73600   2 ;    C79-   C82-   C85-  H145
    55     56     58     59      9   180.00  19.87400   2 ;    C79-   C82-    N6-    N7
    55     74     54    187      9     0.00   1.25520   3 ;    C79-    N9-   C76-  H208
    55     74     54    188      9     0.00   1.25520   3 ;    C79-    N9-   C76-  H211
    55     74     75     76      9     0.00   1.25520   3 ;    C79-    N9-  C115-  C118
    55     74     75    189      9     0.00   1.25520   3 ;    C79-    N9-  C115-   H48
    55     74     75    190      9     0.00   1.25520   3 ;    C79-    N9-  C115-   H49
    56     55     74     75      9     0.00   1.25520   3 ;    C82-   C79-    N9-  C115
    56     57     60     59      9   180.00   7.11280   2 ;    C82-   C85-    N8-    N7
    56     57     60     61      9   180.00   7.11280   2 ;    C82-   C85-    N8-   C88
    56     58     59     60      9   180.00  16.73600   2 ;    C82-    N6-    N7-    N8
    57     56     55     74      9     0.00   0.00000   0 ;    C85-   C82-   C79-    N9
    57     56     55    164      9     0.00   0.00000   0 ;    C85-   C82-   C79-  H139
    57     56     55    165      9     0.00   0.00000   0 ;    C85-   C82-   C79-  H142
    57     56     58     59      9   180.00  19.87400   2 ;    C85-   C82-    N6-    N7
    57     60     59     58      9   180.00  20.08320   2 ;    C85-    N8-    N7-    N6
    57     60     61     62      9     0.00   0.00000   0 ;    C85-    N8-   C88-   C91
    57     60     61    167      9     0.00   0.00000   0 ;    C85-    N8-   C88-  H148
    57     60     61    168      9     0.00   0.00000   0 ;    C85-    N8-   C88-  H151
    58     56     55     74      9     0.00   0.00000   0 ;     N6-   C82-   C79-    N9
    58     56     55    164      9     0.00   0.00000   0 ;     N6-   C82-   C79-  H139
    58     56     55    165      9     0.00   0.00000   0 ;     N6-   C82-   C79-  H142
    58     56     57     60      9   180.00  16.73600   2 ;     N6-   C82-   C85-    N8
    58     56     57    166      9   180.00  16.73600   2 ;     N6-   C82-   C85-  H145
    58     59     60     61      9   180.00  20.08320   2 ;     N6-    N7-    N8-   C88
    59     60     57    166      9   180.00   7.11280   2 ;     N7-    N8-   C85-  H145
    59     60     61     62      9     0.00   0.00000   0 ;     N7-    N8-   C88-   C91
    59     60     61    167      9     0.00   0.00000   0 ;     N7-    N8-   C88-  H148
    59     60     61    168      9     0.00   0.00000   0 ;     N7-    N8-   C88-  H151
    60     61     62     63      9     0.00   0.65084   3 ;     N8-   C88-   C91-    O5
    60     61     62    169      9     0.00   0.65084   3 ;     N8-   C88-   C91-  H154
    60     61     62    170      9     0.00   0.65084   3 ;     N8-   C88-   C91-  H157
    61     60     57    166      9   180.00   7.11280   2 ;    C88-    N8-   C85-  H145
    61     62     63     64      9     0.00   1.60247   3 ;    C88-   C91-    O5-   C94
    61     62     63     64      9   180.00   0.41840   2 ;    C88-   C91-    O5-   C94
    62     63     64     65      9     0.00   1.60247   3 ;    C91-    O5-   C94-   C97
    62     63     64     65      9   180.00   0.41840   2 ;    C91-    O5-   C94-   C97
    62     63     64    171      9     0.00   1.60387   3 ;    C91-    O5-   C94-  H160
    62     63     64    172      9     0.00   1.60387   3 ;    C91-    O5-   C94-  H163
    63     62     61    167      9     0.00   0.00000   0 ;     O5-   C91-   C88-  H148
    63     62     61    167      9     0.00   1.04600   1 ;     O5-   C91-   C88-  H148
    63     62     61    168      9     0.00   0.00000   0 ;     O5-   C91-   C88-  H151
    63     62     61    168      9     0.00   1.04600   1 ;     O5-   C91-   C88-  H151
    63     64     65     66      9     0.00   0.60250   3 ;     O5-   C94-   C97-    O6
    63     64     65     66      9     0.00   4.91620   2 ;     O5-   C94-   C97-    O6
    63     64     65    173      9     0.00   0.00000   0 ;     O5-   C94-   C97-  H166
    63     64     65    173      9     0.00   1.04600   1 ;     O5-   C94-   C97-  H166
    63     64     65    174      9     0.00   0.00000   0 ;     O5-   C94-   C97-  H169
    63     64     65    174      9     0.00   1.04600   1 ;     O5-   C94-   C97-  H169
    64     63     62    169      9     0.00   1.60387   3 ;    C94-    O5-   C91-  H154
    64     63     62    170      9     0.00   1.60387   3 ;    C94-    O5-   C91-  H157
    64     65     66     67      9     0.00   1.60247   3 ;    C94-   C97-    O6-  C100
    64     65     66     67      9   180.00   0.41840   2 ;    C94-   C97-    O6-  C100
    65     66     67     68      9     0.00   1.60247   3 ;    C97-    O6-  C100-  C103
    65     66     67     68      9   180.00   0.41840   2 ;    C97-    O6-  C100-  C103
    65     66     67    175      9     0.00   1.60387   3 ;    C97-    O6-  C100-  H172
    65     66     67    176      9     0.00   1.60387   3 ;    C97-    O6-  C100-  H175
    66     65     64    171      9     0.00   0.00000   0 ;     O6-   C97-   C94-  H160
    66     65     64    171      9     0.00   1.04600   1 ;     O6-   C97-   C94-  H160
    66     65     64    172      9     0.00   0.00000   0 ;     O6-   C97-   C94-  H163
    66     65     64    172      9     0.00   1.04600   1 ;     O6-   C97-   C94-  H163
    66     67     68     69      9     0.00   0.60250   3 ;     O6-  C100-  C103-    O7
    66     67     68     69      9     0.00   4.91620   2 ;     O6-  C100-  C103-    O7
    66     67     68    177      9     0.00   0.00000   0 ;     O6-  C100-  C103-  H178
    66     67     68    177      9     0.00   1.04600   1 ;     O6-  C100-  C103-  H178
    66     67     68    178      9     0.00   0.00000   0 ;     O6-  C100-  C103-  H181
    66     67     68    178      9     0.00   1.04600   1 ;     O6-  C100-  C103-  H181
    67     66     65    173      9     0.00   1.60387   3 ;   C100-    O6-   C97-  H166
    67     66     65    174      9     0.00   1.60387   3 ;   C100-    O6-   C97-  H169
    67     68     69     70      9     0.00   1.60247   3 ;   C100-  C103-    O7-  C106
    67     68     69     70      9   180.00   0.41840   2 ;   C100-  C103-    O7-  C106
    68     69     70     71      9     0.00   1.60247   3 ;   C103-    O7-  C106-  C109
    68     69     70     71      9   180.00   0.41840   2 ;   C103-    O7-  C106-  C109
    68     69     70    179      9     0.00   1.60387   3 ;   C103-    O7-  C106-  H184
    68     69     70    180      9     0.00   1.60387   3 ;   C103-    O7-  C106-  H187
    69     68     67    175      9     0.00   0.00000   0 ;     O7-  C103-  C100-  H172
    69     68     67    175      9     0.00   1.04600   1 ;     O7-  C103-  C100-  H172
    69     68     67    176      9     0.00   0.00000   0 ;     O7-  C103-  C100-  H175
    69     68     67    176      9     0.00   1.04600   1 ;     O7-  C103-  C100-  H175
    69     70     71     72      9     0.00   0.60250   3 ;     O7-  C106-  C109-    O8
    69     70     71     72      9     0.00   4.91620   2 ;     O7-  C106-  C109-    O8
    69     70     71    181      9     0.00   0.00000   0 ;     O7-  C106-  C109-  H190
    69     70     71    181      9     0.00   1.04600   1 ;     O7-  C106-  C109-  H190
    69     70     71    182      9     0.00   0.00000   0 ;     O7-  C106-  C109-  H193
    69     70     71    182      9     0.00   1.04600   1 ;     O7-  C106-  C109-  H193
    70     69     68    177      9     0.00   1.60387   3 ;   C106-    O7-  C103-  H178
    70     69     68    178      9     0.00   1.60387   3 ;   C106-    O7-  C103-  H181
    70     71     72     73      9     0.00   1.60247   3 ;   C106-  C109-    O8-  C112
    70     71     72     73      9   180.00   0.41840   2 ;   C106-  C109-    O8-  C112
    71     72     73    183      9     0.00   1.60387   3 ;   C109-    O8-  C112-  H196
    71     72     73    184      9     0.00   1.60387   3 ;   C109-    O8-  C112-  H199
    71     72     73    325      9     0.00   1.60247   3 ;   C109-    O8-  C112-   C42
    71     72     73    325      9   180.00   0.41840   2 ;   C109-    O8-  C112-   C42
    72     71     70    179      9     0.00   0.00000   0 ;     O8-  C109-  C106-  H184
    72     71     70    179      9     0.00   1.04600   1 ;     O8-  C109-  C106-  H184
    72     71     70    180      9     0.00   0.00000   0 ;     O8-  C109-  C106-  H187
    72     71     70    180      9     0.00   1.04600   1 ;     O8-  C109-  C106-  H187
    72     73    325    185      9     0.00   0.00000   0 ;     O8-  C112-   C42-  H202
    72     73    325    185      9     0.00   1.04600   1 ;     O8-  C112-   C42-  H202
    72     73    325    186      9     0.00   0.00000   0 ;     O8-  C112-   C42-  H205
    72     73    325    186      9     0.00   1.04600   1 ;     O8-  C112-   C42-  H205
    72     73    325    295      9     0.00   0.65084   3 ;     O8-  C112-   C42-   N13
    73     72     71    181      9     0.00   1.60387   3 ;   C112-    O8-  C109-  H190
    73     72     71    182      9     0.00   1.60387   3 ;   C112-    O8-  C109-  H193
    73    325    295    317      9     0.00   0.00000   0 ;   C112-   C42-   N13-  C108
    73    325    295    317      9     0.00   2.21752   1 ;   C112-   C42-   N13-  C108
    73    325    295    317      9   180.00   0.62760   3 ;   C112-   C42-   N13-  C108
    73    325    295    317      9   180.00   2.09200   4 ;   C112-   C42-   N13-  C108
    73    325    295    373      9     0.00   0.00000   0 ;   C112-   C42-   N13-   H75
    74     75     76     77      9     0.00   0.00000   0 ;     N9-  C115-  C118-  C121
    74     75     76     78      9     0.00   0.00000   0 ;     N9-  C115-  C118-   N10
    75     74     54    187      9     0.00   1.25520   3 ;   C115-    N9-   C76-  H208
    75     74     54    188      9     0.00   1.25520   3 ;   C115-    N9-   C76-  H211
    75     74     55    164      9     0.00   1.25520   3 ;   C115-    N9-   C79-  H139
    75     74     55    165      9     0.00   1.25520   3 ;   C115-    N9-   C79-  H142
    75     76     77     80      9   180.00  16.73600   2 ;   C115-  C118-  C121-   N12
    75     76     77    191      9   180.00  16.73600   2 ;   C115-  C118-  C121-   H50
    75     76     78     79      9   180.00  19.87400   2 ;   C115-  C118-   N10-   N11
    76     77     80     79      9   180.00   7.11280   2 ;   C118-  C121-   N12-   N11
    76     77     80     81      9   180.00   7.11280   2 ;   C118-  C121-   N12-  C124
    76     78     79     80      9   180.00  16.73600   2 ;   C118-   N10-   N11-   N12
    77     76     75    189      9     0.00   0.00000   0 ;   C121-  C118-  C115-   H48
    77     76     75    190      9     0.00   0.00000   0 ;   C121-  C118-  C115-   H49
    77     76     78     79      9   180.00  19.87400   2 ;   C121-  C118-   N10-   N11
    77     80     79     78      9   180.00  20.08320   2 ;   C121-   N12-   N11-   N10
    77     80     81     82      9     0.00   0.00000   0 ;   C121-   N12-  C124-  C127
    77     80     81    192      9     0.00   0.00000   0 ;   C121-   N12-  C124-   H51
    77     80     81    193      9     0.00   0.00000   0 ;   C121-   N12-  C124-   H52
    78     76     75    189      9     0.00   0.00000   0 ;    N10-  C118-  C115-   H48
    78     76     75    190      9     0.00   0.00000   0 ;    N10-  C118-  C115-   H49
    78     76     77     80      9   180.00  16.73600   2 ;    N10-  C118-  C121-   N12
    78     76     77    191      9   180.00  16.73600   2 ;    N10-  C118-  C121-   H50
    78     79     80     81      9   180.00  20.08320   2 ;    N10-   N11-   N12-  C124
    79     80     77    191      9   180.00   7.11280   2 ;    N11-   N12-  C121-   H50
    79     80     81     82      9     0.00   0.00000   0 ;    N11-   N12-  C124-  C127
    79     80     81    192      9     0.00   0.00000   0 ;    N11-   N12-  C124-   H51
    79     80     81    193      9     0.00   0.00000   0 ;    N11-   N12-  C124-   H52
    80     81     82     83      9     0.00   0.65084   3 ;    N12-  C124-  C127-    O9
    80     81     82    194      9     0.00   0.65084   3 ;    N12-  C124-  C127-   H53
    80     81     82    195      9     0.00   0.65084   3 ;    N12-  C124-  C127-   H54
    81     80     77    191      9   180.00   7.11280   2 ;   C124-   N12-  C121-   H50
    81     82     83     84      9     0.00   1.60247   3 ;   C124-  C127-    O9-   C31
    81     82     83     84      9   180.00   0.41840   2 ;   C124-  C127-    O9-   C31
    82     83     84     85      9     0.00   1.60247   3 ;   C127-    O9-   C31-   C32
    82     83     84     85      9   180.00   0.41840   2 ;   C127-    O9-   C31-   C32
    82     83     84    196      9     0.00   1.60387   3 ;   C127-    O9-   C31-   H55
    82     83     84    197      9     0.00   1.60387   3 ;   C127-    O9-   C31-   H56
    83     82     81    192      9     0.00   0.00000   0 ;     O9-  C127-  C124-   H51
    83     82     81    192      9     0.00   1.04600   1 ;     O9-  C127-  C124-   H51
    83     82     81    193      9     0.00   0.00000   0 ;     O9-  C127-  C124-   H52
    83     82     81    193      9     0.00   1.04600   1 ;     O9-  C127-  C124-   H52
    83     84     85     86      9     0.00   0.60250   3 ;     O9-   C31-   C32-   O10
    83     84     85     86      9     0.00   4.91620   2 ;     O9-   C31-   C32-   O10
    83     84     85    198      9     0.00   0.00000   0 ;     O9-   C31-   C32-   H57
    83     84     85    198      9     0.00   1.04600   1 ;     O9-   C31-   C32-   H57
    83     84     85    199      9     0.00   0.00000   0 ;     O9-   C31-   C32-   H58
    83     84     85    199      9     0.00   1.04600   1 ;     O9-   C31-   C32-   H58
    84     83     82    194      9     0.00   1.60387   3 ;    C31-    O9-  C127-   H53
    84     83     82    195      9     0.00   1.60387   3 ;    C31-    O9-  C127-   H54
    84     85     86     87      9     0.00   1.60247   3 ;    C31-   C32-   O10-   C33
    84     85     86     87      9   180.00   0.41840   2 ;    C31-   C32-   O10-   C33
    85     86     87     88      9     0.00   1.60247   3 ;    C32-   O10-   C33-   C34
    85     86     87     88      9   180.00   0.41840   2 ;    C32-   O10-   C33-   C34
    85     86     87    200      9     0.00   1.60387   3 ;    C32-   O10-   C33-   H59
    85     86     87    201      9     0.00   1.60387   3 ;    C32-   O10-   C33-   H60
    86     85     84    196      9     0.00   0.00000   0 ;    O10-   C32-   C31-   H55
    86     85     84    196      9     0.00   1.04600   1 ;    O10-   C32-   C31-   H55
    86     85     84    197      9     0.00   0.00000   0 ;    O10-   C32-   C31-   H56
    86     85     84    197      9     0.00   1.04600   1 ;    O10-   C32-   C31-   H56
    86     87     88     89      9     0.00   0.60250   3 ;    O10-   C33-   C34-   O11
    86     87     88     89      9     0.00   4.91620   2 ;    O10-   C33-   C34-   O11
    86     87     88    202      9     0.00   0.00000   0 ;    O10-   C33-   C34-   H61
    86     87     88    202      9     0.00   1.04600   1 ;    O10-   C33-   C34-   H61
    86     87     88    203      9     0.00   0.00000   0 ;    O10-   C33-   C34-   H62
    86     87     88    203      9     0.00   1.04600   1 ;    O10-   C33-   C34-   H62
    87     86     85    198      9     0.00   1.60387   3 ;    C33-   O10-   C32-   H57
    87     86     85    199      9     0.00   1.60387   3 ;    C33-   O10-   C32-   H58
    87     88     89     90      9     0.00   1.60247   3 ;    C33-   C34-   O11-   C35
    87     88     89     90      9   180.00   0.41840   2 ;    C33-   C34-   O11-   C35
    88     89     90     91      9     0.00   1.60247   3 ;    C34-   O11-   C35-   C36
    88     89     90     91      9   180.00   0.41840   2 ;    C34-   O11-   C35-   C36
    88     89     90    204      9     0.00   1.60387   3 ;    C34-   O11-   C35-   H63
    88     89     90    205      9     0.00   1.60387   3 ;    C34-   O11-   C35-   H64
    89     88     87    200      9     0.00   0.00000   0 ;    O11-   C34-   C33-   H59
    89     88     87    200      9     0.00   1.04600   1 ;    O11-   C34-   C33-   H59
    89     88     87    201      9     0.00   0.00000   0 ;    O11-   C34-   C33-   H60
    89     88     87    201      9     0.00   1.04600   1 ;    O11-   C34-   C33-   H60
    89     90     91     92      9     0.00   0.60250   3 ;    O11-   C35-   C36-   O12
    89     90     91     92      9     0.00   4.91620   2 ;    O11-   C35-   C36-   O12
    89     90     91    206      9     0.00   0.00000   0 ;    O11-   C35-   C36-   H65
    89     90     91    206      9     0.00   1.04600   1 ;    O11-   C35-   C36-   H65
    89     90     91    207      9     0.00   0.00000   0 ;    O11-   C35-   C36-   H66
    89     90     91    207      9     0.00   1.04600   1 ;    O11-   C35-   C36-   H66
    90     89     88    202      9     0.00   1.60387   3 ;    C35-   O11-   C34-   H61
    90     89     88    203      9     0.00   1.60387   3 ;    C35-   O11-   C34-   H62
    90     91     92     93      9     0.00   1.60247   3 ;    C35-   C36-   O12-   C37
    90     91     92     93      9   180.00   0.41840   2 ;    C35-   C36-   O12-   C37
    91     92     93     94      9     0.00   1.60247   3 ;    C36-   O12-   C37-   C38
    91     92     93     94      9   180.00   0.41840   2 ;    C36-   O12-   C37-   C38
    91     92     93    208      9     0.00   1.60387   3 ;    C36-   O12-   C37-   H67
    91     92     93    209      9     0.00   1.60387   3 ;    C36-   O12-   C37-   H68
    92     91     90    204      9     0.00   0.00000   0 ;    O12-   C36-   C35-   H63
    92     91     90    204      9     0.00   1.04600   1 ;    O12-   C36-   C35-   H63
    92     91     90    205      9     0.00   0.00000   0 ;    O12-   C36-   C35-   H64
    92     91     90    205      9     0.00   1.04600   1 ;    O12-   C36-   C35-   H64
    92     93     94    210      9     0.00   0.00000   0 ;    O12-   C37-   C38-   H69
    92     93     94    210      9     0.00   1.04600   1 ;    O12-   C37-   C38-   H69
    92     93     94    211      9     0.00   0.00000   0 ;    O12-   C37-   C38-   H70
    92     93     94    211      9     0.00   1.04600   1 ;    O12-   C37-   C38-   H70
    93     92     91    206      9     0.00   1.60387   3 ;    C37-   O12-   C36-   H65
    93     92     91    207      9     0.00   1.60387   3 ;    C37-   O12-   C36-   H66
    93     94     35    236      9     0.00   0.00000   0 ;    C37-   C38-    N2-  C107
    93     94     35    236      9     0.00   2.21752   1 ;    C37-   C38-    N2-  C107
    93     94     35    236      9   180.00   0.62760   3 ;    C37-   C38-    N2-  C107
    93     94     35    236      9   180.00   2.09200   4 ;    C37-   C38-    N2-  C107
    93     94     35    291      9     0.00   0.00000   0 ;    C37-   C38-    N2-   H73
    94     35    236    216      9   180.00  10.46000   2 ;    C38-    N2-  C107-   O17
    94     35    236    230      9     0.00   0.00000   0 ;    C38-    N2-  C107-   C89
    94     35    236    230      9   180.00   6.27600   1 ;    C38-    N2-  C107-   C89
    95     21     25    118      9     0.00   0.62760   3 ;     H1-   C18-   C22-   H24
    95     21     25    119      9     0.00   0.62760   3 ;     H1-   C18-   C22-   H25
    96     13     17    108      9     0.00   0.62760   3 ;     H2-   C10-   C14-   H14
    96     13     17    109      9     0.00   0.62760   3 ;     H2-   C10-   C14-   H15
    97      7     10    103      9     0.00   0.62760   3 ;     H3-    C4-    C7-    H9
    97      7     10    104      9     0.00   0.62760   3 ;     H3-    C4-    C7-   H10
    98      1      3      2      9     0.00   0.00000   0 ;     H4-    C1-    C2-    O1
    98      1      3      2      9     0.00   1.04600   1 ;     H4-    C1-    C2-    O1
    98      1      3      5      9     0.00   0.66944   3 ;     H4-    C1-    C2-    C3
    98      1      3    100      9     0.00   0.65084   3 ;     H4-    C1-    C2-    H6
    98      1      9      8      9     0.00   0.66944   3 ;     H4-    C1-    C6-    C5
    98      1      9    101      9     0.00   0.62760   3 ;     H4-    C1-    C6-    H7
    98      1      9    102      9     0.00   0.62760   3 ;     H4-    C1-    C6-    H8
    99      1      3      2      9     0.00   0.00000   0 ;     H5-    C1-    C2-    O1
    99      1      3      2      9     0.00   1.04600   1 ;     H5-    C1-    C2-    O1
    99      1      3      5      9     0.00   0.66944   3 ;     H5-    C1-    C2-    C3
    99      1      3    100      9     0.00   0.65084   3 ;     H5-    C1-    C2-    H6
    99      1      9      8      9     0.00   0.66944   3 ;     H5-    C1-    C6-    C5
    99      1      9    101      9     0.00   0.62760   3 ;     H5-    C1-    C6-    H7
    99      1      9    102      9     0.00   0.62760   3 ;     H5-    C1-    C6-    H8
   100      3      2    126      9     0.00   0.69733   3 ;     H6-    C2-    O1-   H32
   103     10     11    105      9     0.00   0.62760   3 ;     H9-    C7-    C8-   H11
   103     10     11    106      9     0.00   0.62760   3 ;     H9-    C7-    C8-   H12
   104     10     11    105      9     0.00   0.62760   3 ;    H10-    C7-    C8-   H11
   104     10     11    106      9     0.00   0.62760   3 ;    H10-    C7-    C8-   H12
   107     16     17    108      9     0.00   0.00000   0 ;    H13-   C13-   C14-   H14
   107     16     17    109      9     0.00   0.00000   0 ;    H13-   C13-   C14-   H15
   110     18     19    112      9     0.00   0.62760   3 ;    H16-   C15-   C16-   H18
   110     18     19    113      9     0.00   0.62760   3 ;    H16-   C15-   C16-   H19
   111     18     19    112      9     0.00   0.62760   3 ;    H17-   C15-   C16-   H18
   111     18     19    113      9     0.00   0.62760   3 ;    H17-   C15-   C16-   H19
   114     22     23    116      9     0.00   0.62760   3 ;    H20-   C19-   C20-   H22
   114     22     23    117      9     0.00   0.62760   3 ;    H20-   C19-   C20-   H23
   115     22     23    116      9     0.00   0.62760   3 ;    H21-   C19-   C20-   H22
   115     22     23    117      9     0.00   0.62760   3 ;    H21-   C19-   C20-   H23
   142      4     34    143      9     0.00   0.00000   0 ;    H71-    N1-   C39-   H76
   142      4     34    144      9     0.00   0.00000   0 ;    H71-    N1-   C39-   H79
   143     34     36    145      9     0.00   0.65084   3 ;    H76-   C39-   C43-   H82
   143     34     36    146      9     0.00   0.65084   3 ;    H76-   C39-   C43-   H85
   144     34     36    145      9     0.00   0.65084   3 ;    H79-   C39-   C43-   H82
   144     34     36    146      9     0.00   0.65084   3 ;    H79-   C39-   C43-   H85
   147     38     39    149      9     0.00   0.65084   3 ;    H88-   C46-   C49-   H94
   147     38     39    150      9     0.00   0.65084   3 ;    H88-   C46-   C49-   H97
   148     38     39    149      9     0.00   0.65084   3 ;    H91-   C46-   C49-   H94
   148     38     39    150      9     0.00   0.65084   3 ;    H91-   C46-   C49-   H97
   151     41     42    153      9     0.00   0.65084   3 ;   H100-   C52-   C55-  H106
   151     41     42    154      9     0.00   0.65084   3 ;   H100-   C52-   C55-  H109
   152     41     42    153      9     0.00   0.65084   3 ;   H103-   C52-   C55-  H106
   152     41     42    154      9     0.00   0.65084   3 ;   H103-   C52-   C55-  H109
   155     44     45    157      9     0.00   0.65084   3 ;   H112-   C58-   C61-  H118
   155     44     45    158      9     0.00   0.65084   3 ;   H112-   C58-   C61-  H121
   156     44     45    157      9     0.00   0.65084   3 ;   H115-   C58-   C61-  H118
   156     44     45    158      9     0.00   0.65084   3 ;   H115-   C58-   C61-  H121
   159     47     48    161      9     0.00   0.65084   3 ;   H124-   C64-   C67-  H130
   159     47     48    162      9     0.00   0.65084   3 ;   H124-   C64-   C67-  H133
   160     47     48    161      9     0.00   0.65084   3 ;   H127-   C64-   C67-  H130
   160     47     48    162      9     0.00   0.65084   3 ;   H127-   C64-   C67-  H133
   167     61     62    169      9     0.00   0.65084   3 ;   H148-   C88-   C91-  H154
   167     61     62    170      9     0.00   0.65084   3 ;   H148-   C88-   C91-  H157
   168     61     62    169      9     0.00   0.65084   3 ;   H151-   C88-   C91-  H154
   168     61     62    170      9     0.00   0.65084   3 ;   H151-   C88-   C91-  H157
   171     64     65    173      9     0.00   0.65084   3 ;   H160-   C94-   C97-  H166
   171     64     65    174      9     0.00   0.65084   3 ;   H160-   C94-   C97-  H169
   172     64     65    173      9     0.00   0.65084   3 ;   H163-   C94-   C97-  H166
   172     64     65    174      9     0.00   0.65084   3 ;   H163-   C94-   C97-  H169
   175     67     68    177      9     0.00   0.65084   3 ;   H172-  C100-  C103-  H178
   175     67     68    178      9     0.00   0.65084   3 ;   H172-  C100-  C103-  H181
   176     67     68    177      9     0.00   0.65084   3 ;   H175-  C100-  C103-  H178
   176     67     68    178      9     0.00   0.65084   3 ;   H175-  C100-  C103-  H181
   179     70     71    181      9     0.00   0.65084   3 ;   H184-  C106-  C109-  H190
   179     70     71    182      9     0.00   0.65084   3 ;   H184-  C106-  C109-  H193
   180     70     71    181      9     0.00   0.65084   3 ;   H187-  C106-  C109-  H190
   180     70     71    182      9     0.00   0.65084   3 ;   H187-  C106-  C109-  H193
   183     73    325    185      9     0.00   0.65084   3 ;   H196-  C112-   C42-  H202
   183     73    325    186      9     0.00   0.65084   3 ;   H196-  C112-   C42-  H205
   183     73    325    295      9     0.00   0.65084   3 ;   H196-  C112-   C42-   N13
   184     73    325    185      9     0.00   0.65084   3 ;   H199-  C112-   C42-  H202
   184     73    325    186      9     0.00   0.65084   3 ;   H199-  C112-   C42-  H205
   184     73    325    295      9     0.00   0.65084   3 ;   H199-  C112-   C42-   N13
   185    325    295    317      9     0.00   0.00000   0 ;   H202-   C42-   N13-  C108
   185    325    295    373      9     0.00   0.00000   0 ;   H202-   C42-   N13-   H75
   186    325    295    317      9     0.00   0.00000   0 ;   H205-   C42-   N13-  C108
   186    325    295    373      9     0.00   0.00000   0 ;   H205-   C42-   N13-   H75
   192     81     82    194      9     0.00   0.65084   3 ;    H51-  C124-  C127-   H53
   192     81     82    195      9     0.00   0.65084   3 ;    H51-  C124-  C127-   H54
   193     81     82    194      9     0.00   0.65084   3 ;    H52-  C124-  C127-   H53
   193     81     82    195      9     0.00   0.65084   3 ;    H52-  C124-  C127-   H54
   196     84     85    198      9     0.00   0.65084   3 ;    H55-   C31-   C32-   H57
   196     84     85    199      9     0.00   0.65084   3 ;    H55-   C31-   C32-   H58
   197     84     85    198      9     0.00   0.65084   3 ;    H56-   C31-   C32-   H57
   197     84     85    199      9     0.00   0.65084   3 ;    H56-   C31-   C32-   H58
   200     87     88    202      9     0.00   0.65084   3 ;    H59-   C33-   C34-   H61
   200     87     88    203      9     0.00   0.65084   3 ;    H59-   C33-   C34-   H62
   201     87     88    202      9     0.00   0.65084   3 ;    H60-   C33-   C34-   H61
   201     87     88    203      9     0.00   0.65084   3 ;    H60-   C33-   C34-   H62
   204     90     91    206      9     0.00   0.65084   3 ;    H63-   C35-   C36-   H65
   204     90     91    207      9     0.00   0.65084   3 ;    H63-   C35-   C36-   H66
   205     90     91    206      9     0.00   0.65084   3 ;    H64-   C35-   C36-   H65
   205     90     91    207      9     0.00   0.65084   3 ;    H64-   C35-   C36-   H66
   208     93     94    210      9     0.00   0.65084   3 ;    H67-   C37-   C38-   H69
   208     93     94    211      9     0.00   0.65084   3 ;    H67-   C37-   C38-   H70
   209     93     94    210      9     0.00   0.65084   3 ;    H68-   C37-   C38-   H69
   209     93     94    211      9     0.00   0.65084   3 ;    H68-   C37-   C38-   H70
   210     94     35    236      9     0.00   0.00000   0 ;    H69-   C38-    N2-  C107
   210     94     35    291      9     0.00   0.00000   0 ;    H69-   C38-    N2-   H73
   211     94     35    236      9     0.00   0.00000   0 ;    H70-   C38-    N2-  C107
   211     94     35    291      9     0.00   0.00000   0 ;    H70-   C38-    N2-   H73
   212    214    213    275      9     0.00   0.66944   3 ;    C40-   C44-   O14-  H167
   212    214    213    275      9     0.00   1.04600   1 ;    C40-   C44-   O14-  H167
   212    214    215    217      9     0.00   0.75312   3 ;    C40-   C44-   C47-   C50
   212    214    215    217      9   180.00   0.83680   1 ;    C40-   C44-   C47-   C50
   212    214    215    217      9   180.00   1.04600   2 ;    C40-   C44-   C47-   C50
   212    214    215    241      9     0.00   0.75312   3 ;    C40-   C44-   C47-  C122
   212    214    215    241      9   180.00   0.83680   1 ;    C40-   C44-   C47-  C122
   212    214    215    241      9   180.00   1.04600   2 ;    C40-   C44-   C47-  C122
   212    214    215    242      9     0.00   0.75312   3 ;    C40-   C44-   C47-  C125
   212    214    215    242      9   180.00   0.83680   1 ;    C40-   C44-   C47-  C125
   212    214    215    242      9   180.00   1.04600   2 ;    C40-   C44-   C47-  C125
   212    219    218    217      9     0.00   0.75312   3 ;    C40-   C56-   C53-   C50
   212    219    218    217      9   180.00   0.83680   1 ;    C40-   C56-   C53-   C50
   212    219    218    217      9   180.00   1.04600   2 ;    C40-   C56-   C53-   C50
   212    219    218    223      9     0.00   0.75312   3 ;    C40-   C56-   C53-   C68
   212    219    218    223      9   180.00   0.83680   1 ;    C40-   C56-   C53-   C68
   212    219    218    223      9   180.00   1.04600   2 ;    C40-   C56-   C53-   C68
   212    219    218    238      9     0.00   0.75312   3 ;    C40-   C56-   C53-  C113
   212    219    218    238      9   180.00   0.83680   1 ;    C40-   C56-   C53-  C113
   212    219    218    238      9   180.00   1.04600   2 ;    C40-   C56-   C53-  C113
   213    214    212    219      9     0.00   0.65084   3 ;    O14-   C44-   C40-   C56
   213    214    212    247      9     0.00   0.00000   0 ;    O14-   C44-   C40-   H83
   213    214    212    247      9     0.00   1.04600   1 ;    O14-   C44-   C40-   H83
   213    214    212    248      9     0.00   0.00000   0 ;    O14-   C44-   C40-   H86
   213    214    212    248      9     0.00   1.04600   1 ;    O14-   C44-   C40-   H86
   213    214    215    217      9     0.00   0.65084   3 ;    O14-   C44-   C47-   C50
   213    214    215    241      9     0.00   0.65084   3 ;    O14-   C44-   C47-  C122
   213    214    215    242      9     0.00   0.65084   3 ;    O14-   C44-   C47-  C125
   214    212    219    218      9     0.00   0.75312   3 ;    C44-   C40-   C56-   C53
   214    212    219    218      9   180.00   0.83680   1 ;    C44-   C40-   C56-   C53
   214    212    219    218      9   180.00   1.04600   2 ;    C44-   C40-   C56-   C53
   214    212    219    250      9     0.00   0.66944   3 ;    C44-   C40-   C56-   H92
   214    212    219    251      9     0.00   0.66944   3 ;    C44-   C40-   C56-   H95
   214    215    217    218      9     0.00   0.75312   3 ;    C44-   C47-   C50-   C53
   214    215    217    218      9   180.00   0.83680   1 ;    C44-   C47-   C50-   C53
   214    215    217    218      9   180.00   1.04600   2 ;    C44-   C47-   C50-   C53
   214    215    217    220      9     0.00   0.75312   3 ;    C44-   C47-   C50-   C59
   214    215    217    220      9   180.00   0.83680   1 ;    C44-   C47-   C50-   C59
   214    215    217    220      9   180.00   1.04600   2 ;    C44-   C47-   C50-   C59
   214    215    217    246      9     0.00   0.66944   3 ;    C44-   C47-   C50-   H80
   214    215    241    282      9     0.00   0.66944   3 ;    C44-   C47-  C122-  H188
   214    215    241    283      9     0.00   0.66944   3 ;    C44-   C47-  C122-  H191
   214    215    241    284      9     0.00   0.66944   3 ;    C44-   C47-  C122-  H194
   214    215    242    285      9     0.00   0.66944   3 ;    C44-   C47-  C125-  H197
   214    215    242    286      9     0.00   0.66944   3 ;    C44-   C47-  C125-  H200
   214    215    242    287      9     0.00   0.66944   3 ;    C44-   C47-  C125-  H203
   215    214    212    219      9     0.00   0.75312   3 ;    C47-   C44-   C40-   C56
   215    214    212    219      9   180.00   0.83680   1 ;    C47-   C44-   C40-   C56
   215    214    212    219      9   180.00   1.04600   2 ;    C47-   C44-   C40-   C56
   215    214    212    247      9     0.00   0.66944   3 ;    C47-   C44-   C40-   H83
   215    214    212    248      9     0.00   0.66944   3 ;    C47-   C44-   C40-   H86
   215    214    213    275      9     0.00   0.66944   3 ;    C47-   C44-   O14-  H167
   215    214    213    275      9     0.00   1.04600   1 ;    C47-   C44-   O14-  H167
   215    217    218    219      9     0.00   0.75312   3 ;    C47-   C50-   C53-   C56
   215    217    218    219      9   180.00   0.83680   1 ;    C47-   C50-   C53-   C56
   215    217    218    219      9   180.00   1.04600   2 ;    C47-   C50-   C53-   C56
   215    217    218    223      9     0.00   0.75312   3 ;    C47-   C50-   C53-   C68
   215    217    218    223      9   180.00   0.83680   1 ;    C47-   C50-   C53-   C68
   215    217    218    223      9   180.00   1.04600   2 ;    C47-   C50-   C53-   C68
   215    217    218    238      9     0.00   0.75312   3 ;    C47-   C50-   C53-  C113
   215    217    218    238      9   180.00   0.83680   1 ;    C47-   C50-   C53-  C113
   215    217    218    238      9   180.00   1.04600   2 ;    C47-   C50-   C53-  C113
   215    217    220    221      9     0.00   0.75312   3 ;    C47-   C50-   C59-   C62
   215    217    220    221      9   180.00   0.83680   1 ;    C47-   C50-   C59-   C62
   215    217    220    221      9   180.00   1.04600   2 ;    C47-   C50-   C59-   C62
   215    217    220    252      9     0.00   0.66944   3 ;    C47-   C50-   C59-   H98
   215    217    220    253      9     0.00   0.66944   3 ;    C47-   C50-   C59-  H101
   216    236     35    291      9     0.00   8.36800   1 ;    O17-  C107-    N2-   H73
   216    236     35    291      9   180.00  10.46000   2 ;    O17-  C107-    N2-   H73
   216    236    230    229      9   180.00   0.00000   2 ;    O17-  C107-   C89-   C86
   216    236    230    231      9   180.00   0.00000   2 ;    O17-  C107-   C89-   C92
   216    236    230    232      9   180.00   0.00000   2 ;    O17-  C107-   C89-   C95
   217    215    214    249      9     0.00   0.65084   3 ;    C50-   C47-   C44-   H89
   217    215    241    282      9     0.00   0.66944   3 ;    C50-   C47-  C122-  H188
   217    215    241    283      9     0.00   0.66944   3 ;    C50-   C47-  C122-  H191
   217    215    241    284      9     0.00   0.66944   3 ;    C50-   C47-  C122-  H194
   217    215    242    285      9     0.00   0.66944   3 ;    C50-   C47-  C125-  H197
   217    215    242    286      9     0.00   0.66944   3 ;    C50-   C47-  C125-  H200
   217    215    242    287      9     0.00   0.66944   3 ;    C50-   C47-  C125-  H203
   217    218    219    250      9     0.00   0.66944   3 ;    C50-   C53-   C56-   H92
   217    218    219    251      9     0.00   0.66944   3 ;    C50-   C53-   C56-   H95
   217    218    223    222      9     0.00   0.75312   3 ;    C50-   C53-   C68-   C65
   217    218    223    222      9   180.00   0.83680   1 ;    C50-   C53-   C68-   C65
   217    218    223    222      9   180.00   1.04600   2 ;    C50-   C53-   C68-   C65
   217    218    223    227      9     0.00   0.75312   3 ;    C50-   C53-   C68-   C80
   217    218    223    227      9   180.00   0.83680   1 ;    C50-   C53-   C68-   C80
   217    218    223    227      9   180.00   1.04600   2 ;    C50-   C53-   C68-   C80
   217    218    223    245      9     0.00   0.66944   3 ;    C50-   C53-   C68-   H77
   217    218    238    272      9     0.00   0.66944   3 ;    C50-   C53-  C113-  H158
   217    218    238    273      9     0.00   0.66944   3 ;    C50-   C53-  C113-  H161
   217    218    238    274      9     0.00   0.66944   3 ;    C50-   C53-  C113-  H164
   217    220    221    222      9     0.00   0.75312   3 ;    C50-   C59-   C62-   C65
   217    220    221    222      9   180.00   0.83680   1 ;    C50-   C59-   C62-   C65
   217    220    221    222      9   180.00   1.04600   2 ;    C50-   C59-   C62-   C65
   217    220    221    254      9     0.00   0.66944   3 ;    C50-   C59-   C62-  H104
   217    220    221    255      9     0.00   0.66944   3 ;    C50-   C59-   C62-  H107
   218    217    215    241      9     0.00   0.75312   3 ;    C53-   C50-   C47-  C122
   218    217    215    241      9   180.00   0.83680   1 ;    C53-   C50-   C47-  C122
   218    217    215    241      9   180.00   1.04600   2 ;    C53-   C50-   C47-  C122
   218    217    215    242      9     0.00   0.75312   3 ;    C53-   C50-   C47-  C125
   218    217    215    242      9   180.00   0.83680   1 ;    C53-   C50-   C47-  C125
   218    217    215    242      9   180.00   1.04600   2 ;    C53-   C50-   C47-  C125
   218    217    220    221      9     0.00   0.75312   3 ;    C53-   C50-   C59-   C62
   218    217    220    221      9   180.00   0.83680   1 ;    C53-   C50-   C59-   C62
   218    217    220    221      9   180.00   1.04600   2 ;    C53-   C50-   C59-   C62
   218    217    220    252      9     0.00   0.66944   3 ;    C53-   C50-   C59-   H98
   218    217    220    253      9     0.00   0.66944   3 ;    C53-   C50-   C59-  H101
   218    219    212    247      9     0.00   0.66944   3 ;    C53-   C56-   C40-   H83
   218    219    212    248      9     0.00   0.66944   3 ;    C53-   C56-   C40-   H86
   218    223    222    221      9     0.00   0.75312   3 ;    C53-   C68-   C65-   C62
   218    223    222    221      9   180.00   0.83680   1 ;    C53-   C68-   C65-   C62
   218    223    222    221      9   180.00   1.04600   2 ;    C53-   C68-   C65-   C62
   218    223    222    224      9     0.00   0.75312   3 ;    C53-   C68-   C65-   C71
   218    223    222    224      9   180.00   0.83680   1 ;    C53-   C68-   C65-   C71
   218    223    222    224      9   180.00   1.04600   2 ;    C53-   C68-   C65-   C71
   218    223    222    237      9     0.00   0.75312   3 ;    C53-   C68-   C65-  C110
   218    223    222    237      9   180.00   0.83680   1 ;    C53-   C68-   C65-  C110
   218    223    222    237      9   180.00   1.04600   2 ;    C53-   C68-   C65-  C110
   218    223    227    226      9     0.00   0.65084   3 ;    C53-   C68-   C80-   C77
   218    223    227    257      9     0.00   0.66944   3 ;    C53-   C68-   C80-  H113
   218    223    227    258      9     0.00   0.66944   3 ;    C53-   C68-   C80-  H116
   219    212    214    249      9     0.00   0.65084   3 ;    C56-   C40-   C44-   H89
   219    218    217    220      9     0.00   0.75312   3 ;    C56-   C53-   C50-   C59
   219    218    217    220      9   180.00   0.83680   1 ;    C56-   C53-   C50-   C59
   219    218    217    220      9   180.00   1.04600   2 ;    C56-   C53-   C50-   C59
   219    218    217    246      9     0.00   0.66944   3 ;    C56-   C53-   C50-   H80
   219    218    223    222      9     0.00   0.75312   3 ;    C56-   C53-   C68-   C65
   219    218    223    222      9   180.00   0.83680   1 ;    C56-   C53-   C68-   C65
   219    218    223    222      9   180.00   1.04600   2 ;    C56-   C53-   C68-   C65
   219    218    223    227      9     0.00   0.75312   3 ;    C56-   C53-   C68-   C80
   219    218    223    227      9   180.00   0.83680   1 ;    C56-   C53-   C68-   C80
   219    218    223    227      9   180.00   1.04600   2 ;    C56-   C53-   C68-   C80
   219    218    223    245      9     0.00   0.66944   3 ;    C56-   C53-   C68-   H77
   219    218    238    272      9     0.00   0.66944   3 ;    C56-   C53-  C113-  H158
   219    218    238    273      9     0.00   0.66944   3 ;    C56-   C53-  C113-  H161
   219    218    238    274      9     0.00   0.66944   3 ;    C56-   C53-  C113-  H164
   220    217    215    241      9     0.00   0.75312   3 ;    C59-   C50-   C47-  C122
   220    217    215    241      9   180.00   0.83680   1 ;    C59-   C50-   C47-  C122
   220    217    215    241      9   180.00   1.04600   2 ;    C59-   C50-   C47-  C122
   220    217    215    242      9     0.00   0.75312   3 ;    C59-   C50-   C47-  C125
   220    217    215    242      9   180.00   0.83680   1 ;    C59-   C50-   C47-  C125
   220    217    215    242      9   180.00   1.04600   2 ;    C59-   C50-   C47-  C125
   220    217    218    223      9     0.00   0.75312   3 ;    C59-   C50-   C53-   C68
   220    217    218    223      9   180.00   0.83680   1 ;    C59-   C50-   C53-   C68
   220    217    218    223      9   180.00   1.04600   2 ;    C59-   C50-   C53-   C68
   220    217    218    238      9     0.00   0.75312   3 ;    C59-   C50-   C53-  C113
   220    217    218    238      9   180.00   0.83680   1 ;    C59-   C50-   C53-  C113
   220    217    218    238      9   180.00   1.04600   2 ;    C59-   C50-   C53-  C113
   220    221    222    223      9     0.00   0.75312   3 ;    C59-   C62-   C65-   C68
   220    221    222    223      9   180.00   0.83680   1 ;    C59-   C62-   C65-   C68
   220    221    222    223      9   180.00   1.04600   2 ;    C59-   C62-   C65-   C68
   220    221    222    224      9     0.00   0.75312   3 ;    C59-   C62-   C65-   C71
   220    221    222    224      9   180.00   0.83680   1 ;    C59-   C62-   C65-   C71
   220    221    222    224      9   180.00   1.04600   2 ;    C59-   C62-   C65-   C71
   220    221    222    237      9     0.00   0.75312   3 ;    C59-   C62-   C65-  C110
   220    221    222    237      9   180.00   0.83680   1 ;    C59-   C62-   C65-  C110
   220    221    222    237      9   180.00   1.04600   2 ;    C59-   C62-   C65-  C110
   221    220    217    246      9     0.00   0.66944   3 ;    C62-   C59-   C50-   H80
   221    222    223    227      9     0.00   0.75312   3 ;    C62-   C65-   C68-   C80
   221    222    223    227      9   180.00   0.83680   1 ;    C62-   C65-   C68-   C80
   221    222    223    227      9   180.00   1.04600   2 ;    C62-   C65-   C68-   C80
   221    222    223    245      9     0.00   0.66944   3 ;    C62-   C65-   C68-   H77
   221    222    224    225      9     0.00   0.65084   3 ;    C62-   C65-   C71-   C74
   221    222    224    228      9     0.00   0.75312   3 ;    C62-   C65-   C71-   C83
   221    222    224    228      9   180.00   0.83680   1 ;    C62-   C65-   C71-   C83
   221    222    224    228      9   180.00   1.04600   2 ;    C62-   C65-   C71-   C83
   221    222    224    240      9     0.00   0.75312   3 ;    C62-   C65-   C71-  C119
   221    222    224    240      9   180.00   0.83680   1 ;    C62-   C65-   C71-  C119
   221    222    224    240      9   180.00   1.04600   2 ;    C62-   C65-   C71-  C119
   221    222    237    269      9     0.00   0.66944   3 ;    C62-   C65-  C110-  H149
   221    222    237    270      9     0.00   0.66944   3 ;    C62-   C65-  C110-  H152
   221    222    237    271      9     0.00   0.66944   3 ;    C62-   C65-  C110-  H155
   222    221    220    252      9     0.00   0.66944   3 ;    C65-   C62-   C59-   H98
   222    221    220    253      9     0.00   0.66944   3 ;    C65-   C62-   C59-  H101
   222    223    218    238      9     0.00   0.75312   3 ;    C65-   C68-   C53-  C113
   222    223    218    238      9   180.00   0.83680   1 ;    C65-   C68-   C53-  C113
   222    223    218    238      9   180.00   1.04600   2 ;    C65-   C68-   C53-  C113
   222    223    227    226      9     0.00   0.65084   3 ;    C65-   C68-   C80-   C77
   222    223    227    257      9     0.00   0.66944   3 ;    C65-   C68-   C80-  H113
   222    223    227    258      9     0.00   0.66944   3 ;    C65-   C68-   C80-  H116
   222    224    225    226      9     0.00   0.00000   0 ;    C65-   C71-   C74-   C77
   222    224    225    231      9     0.00   0.00000   0 ;    C65-   C71-   C74-   C92
   222    224    228    229      9     0.00   0.75312   3 ;    C65-   C71-   C83-   C86
   222    224    228    229      9   180.00   0.83680   1 ;    C65-   C71-   C83-   C86
   222    224    228    229      9   180.00   1.04600   2 ;    C65-   C71-   C83-   C86
   222    224    228    259      9     0.00   0.66944   3 ;    C65-   C71-   C83-  H119
   222    224    228    260      9     0.00   0.66944   3 ;    C65-   C71-   C83-  H122
   222    224    240    279      9     0.00   0.66944   3 ;    C65-   C71-  C119-  H179
   222    224    240    280      9     0.00   0.66944   3 ;    C65-   C71-  C119-  H182
   222    224    240    281      9     0.00   0.66944   3 ;    C65-   C71-  C119-  H185
   223    218    217    246      9     0.00   0.66944   3 ;    C68-   C53-   C50-   H80
   223    218    219    250      9     0.00   0.66944   3 ;    C68-   C53-   C56-   H92
   223    218    219    251      9     0.00   0.66944   3 ;    C68-   C53-   C56-   H95
   223    218    238    272      9     0.00   0.66944   3 ;    C68-   C53-  C113-  H158
   223    218    238    273      9     0.00   0.66944   3 ;    C68-   C53-  C113-  H161
   223    218    238    274      9     0.00   0.66944   3 ;    C68-   C53-  C113-  H164
   223    222    221    254      9     0.00   0.66944   3 ;    C68-   C65-   C62-  H104
   223    222    221    255      9     0.00   0.66944   3 ;    C68-   C65-   C62-  H107
   223    222    224    225      9     0.00   0.65084   3 ;    C68-   C65-   C71-   C74
   223    222    224    228      9     0.00   0.75312   3 ;    C68-   C65-   C71-   C83
   223    222    224    228      9   180.00   0.83680   1 ;    C68-   C65-   C71-   C83
   223    222    224    228      9   180.00   1.04600   2 ;    C68-   C65-   C71-   C83
   223    222    224    240      9     0.00   0.75312   3 ;    C68-   C65-   C71-  C119
   223    222    224    240      9   180.00   0.83680   1 ;    C68-   C65-   C71-  C119
   223    222    224    240      9   180.00   1.04600   2 ;    C68-   C65-   C71-  C119
   223    222    237    269      9     0.00   0.66944   3 ;    C68-   C65-  C110-  H149
   223    222    237    270      9     0.00   0.66944   3 ;    C68-   C65-  C110-  H152
   223    222    237    271      9     0.00   0.66944   3 ;    C68-   C65-  C110-  H155
   223    227    226    225      9     0.00   0.00000   0 ;    C68-   C80-   C77-   C74
   223    227    226    256      9     0.00   0.00000   0 ;    C68-   C80-   C77-  H110
   224    222    221    254      9     0.00   0.66944   3 ;    C71-   C65-   C62-  H104
   224    222    221    255      9     0.00   0.66944   3 ;    C71-   C65-   C62-  H107
   224    222    223    227      9     0.00   0.75312   3 ;    C71-   C65-   C68-   C80
   224    222    223    227      9   180.00   0.83680   1 ;    C71-   C65-   C68-   C80
   224    222    223    227      9   180.00   1.04600   2 ;    C71-   C65-   C68-   C80
   224    222    223    245      9     0.00   0.66944   3 ;    C71-   C65-   C68-   H77
   224    222    237    269      9     0.00   0.66944   3 ;    C71-   C65-  C110-  H149
   224    222    237    270      9     0.00   0.66944   3 ;    C71-   C65-  C110-  H152
   224    222    237    271      9     0.00   0.66944   3 ;    C71-   C65-  C110-  H155
   224    225    226    227      9   180.00   7.94960   1 ;    C71-   C74-   C77-   C80
   224    225    226    227      9   180.00  27.82360   2 ;    C71-   C74-   C77-   C80
   224    225    226    256      9   180.00  27.82360   2 ;    C71-   C74-   C77-  H110
   224    225    231    230      9     0.00   0.00000   0 ;    C71-   C74-   C92-   C89
   224    225    231    235      9     0.00   0.00000   0 ;    C71-   C74-   C92-  C104
   224    225    231    244      9     0.00   0.00000   0 ;    C71-   C74-   C92-   H72
   224    228    229    230      9     0.00   0.75312   3 ;    C71-   C83-   C86-   C89
   224    228    229    230      9   180.00   0.83680   1 ;    C71-   C83-   C86-   C89
   224    228    229    230      9   180.00   1.04600   2 ;    C71-   C83-   C86-   C89
   224    228    229    261      9     0.00   0.66944   3 ;    C71-   C83-   C86-  H125
   224    228    229    262      9     0.00   0.66944   3 ;    C71-   C83-   C86-  H128
   225    224    222    237      9     0.00   0.65084   3 ;    C74-   C71-   C65-  C110
   225    224    228    229      9     0.00   0.65084   3 ;    C74-   C71-   C83-   C86
   225    224    228    259      9     0.00   0.65084   3 ;    C74-   C71-   C83-  H119
   225    224    228    260      9     0.00   0.65084   3 ;    C74-   C71-   C83-  H122
   225    224    240    279      9     0.00   0.65084   3 ;    C74-   C71-  C119-  H179
   225    224    240    280      9     0.00   0.65084   3 ;    C74-   C71-  C119-  H182
   225    224    240    281      9     0.00   0.65084   3 ;    C74-   C71-  C119-  H185
   225    226    227    257      9     0.00   0.00000   0 ;    C74-   C77-   C80-  H113
   225    226    227    257      9     0.00   4.81160   1 ;    C74-   C77-   C80-  H113
   225    226    227    257      9   180.00   1.58992   3 ;    C74-   C77-   C80-  H113
   225    226    227    258      9     0.00   0.00000   0 ;    C74-   C77-   C80-  H116
   225    226    227    258      9     0.00   4.81160   1 ;    C74-   C77-   C80-  H116
   225    226    227    258      9   180.00   1.58992   3 ;    C74-   C77-   C80-  H116
   225    231    230    229      9     0.00   0.65084   3 ;    C74-   C92-   C89-   C86
   225    231    230    232      9     0.00   0.65084   3 ;    C74-   C92-   C89-   C95
   225    231    230    236      9     0.00   0.65084   3 ;    C74-   C92-   C89-  C107
   225    231    235    234      9     0.00   0.65084   3 ;    C74-   C92-  C104-  C101
   225    231    235    267      9     0.00   0.65084   3 ;    C74-   C92-  C104-  H143
   225    231    235    268      9     0.00   0.65084   3 ;    C74-   C92-  C104-  H146
   226    225    224    228      9     0.00   0.00000   0 ;    C77-   C74-   C71-   C83
   226    225    224    240      9     0.00   0.00000   0 ;    C77-   C74-   C71-  C119
   226    225    231    230      9     0.00   0.00000   0 ;    C77-   C74-   C92-   C89
   226    225    231    235      9     0.00   0.00000   0 ;    C77-   C74-   C92-  C104
   226    225    231    244      9     0.00   0.00000   0 ;    C77-   C74-   C92-   H72
   226    225    231    244      9     0.00   4.81160   1 ;    C77-   C74-   C92-   H72
   226    225    231    244      9   180.00   1.58992   3 ;    C77-   C74-   C92-   H72
   226    227    223    245      9     0.00   0.65084   3 ;    C77-   C80-   C68-   H77
   227    223    218    238      9     0.00   0.75312   3 ;    C80-   C68-   C53-  C113
   227    223    218    238      9   180.00   0.83680   1 ;    C80-   C68-   C53-  C113
   227    223    218    238      9   180.00   1.04600   2 ;    C80-   C68-   C53-  C113
   227    223    222    237      9     0.00   0.75312   3 ;    C80-   C68-   C65-  C110
   227    223    222    237      9   180.00   0.83680   1 ;    C80-   C68-   C65-  C110
   227    223    222    237      9   180.00   1.04600   2 ;    C80-   C68-   C65-  C110
   227    226    225    231      9   180.00   7.94960   1 ;    C80-   C77-   C74-   C92
   227    226    225    231      9   180.00  27.82360   2 ;    C80-   C77-   C74-   C92
   228    224    222    237      9     0.00   0.75312   3 ;    C83-   C71-   C65-  C110
   228    224    222    237      9   180.00   0.83680   1 ;    C83-   C71-   C65-  C110
   228    224    222    237      9   180.00   1.04600   2 ;    C83-   C71-   C65-  C110
   228    224    225    231      9     0.00   0.00000   0 ;    C83-   C71-   C74-   C92
   228    224    240    279      9     0.00   0.66944   3 ;    C83-   C71-  C119-  H179
   228    224    240    280      9     0.00   0.66944   3 ;    C83-   C71-  C119-  H182
   228    224    240    281      9     0.00   0.66944   3 ;    C83-   C71-  C119-  H185
   228    229    230    231      9     0.00   0.75312   3 ;    C83-   C86-   C89-   C92
   228    229    230    231      9   180.00   0.83680   1 ;    C83-   C86-   C89-   C92
   228    229    230    231      9   180.00   1.04600   2 ;    C83-   C86-   C89-   C92
   228    229    230    232      9     0.00   0.75312   3 ;    C83-   C86-   C89-   C95
   228    229    230    232      9   180.00   0.83680   1 ;    C83-   C86-   C89-   C95
   228    229    230    232      9   180.00   1.04600   2 ;    C83-   C86-   C89-   C95
   228    229    230    236      9     0.00   0.65084   3 ;    C83-   C86-   C89-  C107
   229    228    224    240      9     0.00   0.75312   3 ;    C86-   C83-   C71-  C119
   229    228    224    240      9   180.00   0.83680   1 ;    C86-   C83-   C71-  C119
   229    228    224    240      9   180.00   1.04600   2 ;    C86-   C83-   C71-  C119
   229    230    231    235      9     0.00   0.75312   3 ;    C86-   C89-   C92-  C104
   229    230    231    235      9   180.00   0.83680   1 ;    C86-   C89-   C92-  C104
   229    230    231    235      9   180.00   1.04600   2 ;    C86-   C89-   C92-  C104
   229    230    231    244      9     0.00   0.66944   3 ;    C86-   C89-   C92-   H72
   229    230    232    233      9     0.00   0.75312   3 ;    C86-   C89-   C95-   C98
   229    230    232    233      9   180.00   0.83680   1 ;    C86-   C89-   C95-   C98
   229    230    232    233      9   180.00   1.04600   2 ;    C86-   C89-   C95-   C98
   229    230    232    263      9     0.00   0.66944   3 ;    C86-   C89-   C95-  H131
   229    230    232    264      9     0.00   0.66944   3 ;    C86-   C89-   C95-  H134
   230    229    228    259      9     0.00   0.66944   3 ;    C89-   C86-   C83-  H119
   230    229    228    260      9     0.00   0.66944   3 ;    C89-   C86-   C83-  H122
   230    231    235    234      9     0.00   0.75312   3 ;    C89-   C92-  C104-  C101
   230    231    235    234      9   180.00   0.83680   1 ;    C89-   C92-  C104-  C101
   230    231    235    234      9   180.00   1.04600   2 ;    C89-   C92-  C104-  C101
   230    231    235    267      9     0.00   0.66944   3 ;    C89-   C92-  C104-  H143
   230    231    235    268      9     0.00   0.66944   3 ;    C89-   C92-  C104-  H146
   230    232    233    234      9     0.00   0.75312   3 ;    C89-   C95-   C98-  C101
   230    232    233    234      9   180.00   0.83680   1 ;    C89-   C95-   C98-  C101
   230    232    233    234      9   180.00   1.04600   2 ;    C89-   C95-   C98-  C101
   230    232    233    265      9     0.00   0.66944   3 ;    C89-   C95-   C98-  H137
   230    232    233    266      9     0.00   0.66944   3 ;    C89-   C95-   C98-  H140
   230    236     35    291      9   180.00  10.46000   2 ;    C89-  C107-    N2-   H73
   231    225    224    240      9     0.00   0.00000   0 ;    C92-   C74-   C71-  C119
   231    225    226    256      9   180.00  27.82360   2 ;    C92-   C74-   C77-  H110
   231    230    229    261      9     0.00   0.66944   3 ;    C92-   C89-   C86-  H125
   231    230    229    262      9     0.00   0.66944   3 ;    C92-   C89-   C86-  H128
   231    230    232    233      9     0.00   0.75312   3 ;    C92-   C89-   C95-   C98
   231    230    232    233      9   180.00   0.83680   1 ;    C92-   C89-   C95-   C98
   231    230    232    233      9   180.00   1.04600   2 ;    C92-   C89-   C95-   C98
   231    230    232    263      9     0.00   0.66944   3 ;    C92-   C89-   C95-  H131
   231    230    232    264      9     0.00   0.66944   3 ;    C92-   C89-   C95-  H134
   231    235    234    233      9     0.00   0.75312   3 ;    C92-  C104-  C101-   C98
   231    235    234    233      9   180.00   0.83680   1 ;    C92-  C104-  C101-   C98
   231    235    234    233      9   180.00   1.04600   2 ;    C92-  C104-  C101-   C98
   231    235    234    239      9     0.00   0.75312   3 ;    C92-  C104-  C101-  C116
   231    235    234    239      9   180.00   0.83680   1 ;    C92-  C104-  C101-  C116
   231    235    234    239      9   180.00   1.04600   2 ;    C92-  C104-  C101-  C116
   231    235    234    243      9     0.00   0.75312   3 ;    C92-  C104-  C101-  C128
   231    235    234    243      9   180.00   0.83680   1 ;    C92-  C104-  C101-  C128
   231    235    234    243      9   180.00   1.04600   2 ;    C92-  C104-  C101-  C128
   232    230    229    261      9     0.00   0.66944   3 ;    C95-   C89-   C86-  H125
   232    230    229    262      9     0.00   0.66944   3 ;    C95-   C89-   C86-  H128
   232    230    231    235      9     0.00   0.75312   3 ;    C95-   C89-   C92-  C104
   232    230    231    235      9   180.00   0.83680   1 ;    C95-   C89-   C92-  C104
   232    230    231    235      9   180.00   1.04600   2 ;    C95-   C89-   C92-  C104
   232    230    231    244      9     0.00   0.66944   3 ;    C95-   C89-   C92-   H72
   232    233    234    235      9     0.00   0.75312   3 ;    C95-   C98-  C101-  C104
   232    233    234    235      9   180.00   0.83680   1 ;    C95-   C98-  C101-  C104
   232    233    234    235      9   180.00   1.04600   2 ;    C95-   C98-  C101-  C104
   232    233    234    239      9     0.00   0.75312   3 ;    C95-   C98-  C101-  C116
   232    233    234    239      9   180.00   0.83680   1 ;    C95-   C98-  C101-  C116
   232    233    234    239      9   180.00   1.04600   2 ;    C95-   C98-  C101-  C116
   232    233    234    243      9     0.00   0.75312   3 ;    C95-   C98-  C101-  C128
   232    233    234    243      9   180.00   0.83680   1 ;    C95-   C98-  C101-  C128
   232    233    234    243      9   180.00   1.04600   2 ;    C95-   C98-  C101-  C128
   233    232    230    236      9     0.00   0.65084   3 ;    C98-   C95-   C89-  C107
   233    234    235    267      9     0.00   0.66944   3 ;    C98-  C101-  C104-  H143
   233    234    235    268      9     0.00   0.66944   3 ;    C98-  C101-  C104-  H146
   233    234    239    276      9     0.00   0.66944   3 ;    C98-  C101-  C116-  H170
   233    234    239    277      9     0.00   0.66944   3 ;    C98-  C101-  C116-  H173
   233    234    239    278      9     0.00   0.66944   3 ;    C98-  C101-  C116-  H176
   233    234    243    288      9     0.00   0.66944   3 ;    C98-  C101-  C128-  H206
   233    234    243    289      9     0.00   0.66944   3 ;    C98-  C101-  C128-  H209
   233    234    243    290      9     0.00   0.66944   3 ;    C98-  C101-  C128-  H212
   234    233    232    263      9     0.00   0.66944   3 ;   C101-   C98-   C95-  H131
   234    233    232    264      9     0.00   0.66944   3 ;   C101-   C98-   C95-  H134
   234    235    231    244      9     0.00   0.66944   3 ;   C101-  C104-   C92-   H72
   235    231    230    236      9     0.00   0.65084   3 ;   C104-   C92-   C89-  C107
   235    234    233    265      9     0.00   0.66944   3 ;   C104-  C101-   C98-  H137
   235    234    233    266      9     0.00   0.66944   3 ;   C104-  C101-   C98-  H140
   235    234    239    276      9     0.00   0.66944   3 ;   C104-  C101-  C116-  H170
   235    234    239    277      9     0.00   0.66944   3 ;   C104-  C101-  C116-  H173
   235    234    239    278      9     0.00   0.66944   3 ;   C104-  C101-  C116-  H176
   235    234    243    288      9     0.00   0.66944   3 ;   C104-  C101-  C128-  H206
   235    234    243    289      9     0.00   0.66944   3 ;   C104-  C101-  C128-  H209
   235    234    243    290      9     0.00   0.66944   3 ;   C104-  C101-  C128-  H212
   236    230    229    261      9     0.00   0.65084   3 ;   C107-   C89-   C86-  H125
   236    230    229    262      9     0.00   0.65084   3 ;   C107-   C89-   C86-  H128
   236    230    231    244      9     0.00   0.65084   3 ;   C107-   C89-   C92-   H72
   236    230    232    263      9     0.00   0.65084   3 ;   C107-   C89-   C95-  H131
   236    230    232    264      9     0.00   0.65084   3 ;   C107-   C89-   C95-  H134
   237    222    221    254      9     0.00   0.66944   3 ;   C110-   C65-   C62-  H104
   237    222    221    255      9     0.00   0.66944   3 ;   C110-   C65-   C62-  H107
   237    222    223    245      9     0.00   0.66944   3 ;   C110-   C65-   C68-   H77
   237    222    224    240      9     0.00   0.75312   3 ;   C110-   C65-   C71-  C119
   237    222    224    240      9   180.00   0.83680   1 ;   C110-   C65-   C71-  C119
   237    222    224    240      9   180.00   1.04600   2 ;   C110-   C65-   C71-  C119
   238    218    217    246      9     0.00   0.66944   3 ;   C113-   C53-   C50-   H80
   238    218    219    250      9     0.00   0.66944   3 ;   C113-   C53-   C56-   H92
   238    218    219    251      9     0.00   0.66944   3 ;   C113-   C53-   C56-   H95
   238    218    223    245      9     0.00   0.66944   3 ;   C113-   C53-   C68-   H77
   239    234    233    265      9     0.00   0.66944   3 ;   C116-  C101-   C98-  H137
   239    234    233    266      9     0.00   0.66944   3 ;   C116-  C101-   C98-  H140
   239    234    235    267      9     0.00   0.66944   3 ;   C116-  C101-  C104-  H143
   239    234    235    268      9     0.00   0.66944   3 ;   C116-  C101-  C104-  H146
   239    234    243    288      9     0.00   0.66944   3 ;   C116-  C101-  C128-  H206
   239    234    243    289      9     0.00   0.66944   3 ;   C116-  C101-  C128-  H209
   239    234    243    290      9     0.00   0.66944   3 ;   C116-  C101-  C128-  H212
   240    224    228    259      9     0.00   0.66944   3 ;   C119-   C71-   C83-  H119
   240    224    228    260      9     0.00   0.66944   3 ;   C119-   C71-   C83-  H122
   241    215    214    249      9     0.00   0.65084   3 ;   C122-   C47-   C44-   H89
   241    215    217    246      9     0.00   0.66944   3 ;   C122-   C47-   C50-   H80
   241    215    242    285      9     0.00   0.66944   3 ;   C122-   C47-  C125-  H197
   241    215    242    286      9     0.00   0.66944   3 ;   C122-   C47-  C125-  H200
   241    215    242    287      9     0.00   0.66944   3 ;   C122-   C47-  C125-  H203
   242    215    214    249      9     0.00   0.65084   3 ;   C125-   C47-   C44-   H89
   242    215    217    246      9     0.00   0.66944   3 ;   C125-   C47-   C50-   H80
   242    215    241    282      9     0.00   0.66944   3 ;   C125-   C47-  C122-  H188
   242    215    241    283      9     0.00   0.66944   3 ;   C125-   C47-  C122-  H191
   242    215    241    284      9     0.00   0.66944   3 ;   C125-   C47-  C122-  H194
   243    234    233    265      9     0.00   0.66944   3 ;   C128-  C101-   C98-  H137
   243    234    233    266      9     0.00   0.66944   3 ;   C128-  C101-   C98-  H140
   243    234    235    267      9     0.00   0.66944   3 ;   C128-  C101-  C104-  H143
   243    234    235    268      9     0.00   0.66944   3 ;   C128-  C101-  C104-  H146
   243    234    239    276      9     0.00   0.66944   3 ;   C128-  C101-  C116-  H170
   243    234    239    277      9     0.00   0.66944   3 ;   C128-  C101-  C116-  H173
   243    234    239    278      9     0.00   0.66944   3 ;   C128-  C101-  C116-  H176
   244    231    235    267      9     0.00   0.62760   3 ;    H72-   C92-  C104-  H143
   244    231    235    268      9     0.00   0.62760   3 ;    H72-   C92-  C104-  H146
   245    223    227    257      9     0.00   0.62760   3 ;    H77-   C68-   C80-  H113
   245    223    227    258      9     0.00   0.62760   3 ;    H77-   C68-   C80-  H116
   246    217    220    252      9     0.00   0.62760   3 ;    H80-   C50-   C59-   H98
   246    217    220    253      9     0.00   0.62760   3 ;    H80-   C50-   C59-  H101
   247    212    214    249      9     0.00   0.65084   3 ;    H83-   C40-   C44-   H89
   247    212    219    250      9     0.00   0.62760   3 ;    H83-   C40-   C56-   H92
   247    212    219    251      9     0.00   0.62760   3 ;    H83-   C40-   C56-   H95
   248    212    214    249      9     0.00   0.65084   3 ;    H86-   C40-   C44-   H89
   248    212    219    250      9     0.00   0.62760   3 ;    H86-   C40-   C56-   H92
   248    212    219    251      9     0.00   0.62760   3 ;    H86-   C40-   C56-   H95
   249    214    213    275      9     0.00   0.69733   3 ;    H89-   C44-   O14-  H167
   252    220    221    254      9     0.00   0.62760   3 ;    H98-   C59-   C62-  H104
   252    220    221    255      9     0.00   0.62760   3 ;    H98-   C59-   C62-  H107
   253    220    221    254      9     0.00   0.62760   3 ;   H101-   C59-   C62-  H104
   253    220    221    255      9     0.00   0.62760   3 ;   H101-   C59-   C62-  H107
   256    226    227    257      9     0.00   0.00000   0 ;   H110-   C77-   C80-  H113
   256    226    227    258      9     0.00   0.00000   0 ;   H110-   C77-   C80-  H116
   259    228    229    261      9     0.00   0.62760   3 ;   H119-   C83-   C86-  H125
   259    228    229    262      9     0.00   0.62760   3 ;   H119-   C83-   C86-  H128
   260    228    229    261      9     0.00   0.62760   3 ;   H122-   C83-   C86-  H125
   260    228    229    262      9     0.00   0.62760   3 ;   H122-   C83-   C86-  H128
   263    232    233    265      9     0.00   0.62760   3 ;   H131-   C95-   C98-  H137
   263    232    233    266      9     0.00   0.62760   3 ;   H131-   C95-   C98-  H140
   264    232    233    265      9     0.00   0.62760   3 ;   H134-   C95-   C98-  H137
   264    232    233    266      9     0.00   0.62760   3 ;   H134-   C95-   C98-  H140
   292    294    293    357      9     0.00   0.66944   3 ;    C41-   C45-   O15-  H168
   292    294    293    357      9     0.00   1.04600   1 ;    C41-   C45-   O15-  H168
   292    294    296    298      9     0.00   0.75312   3 ;    C41-   C45-   C48-   C51
   292    294    296    298      9   180.00   0.83680   1 ;    C41-   C45-   C48-   C51
   292    294    296    298      9   180.00   1.04600   2 ;    C41-   C45-   C48-   C51
   292    294    296    322      9     0.00   0.75312   3 ;    C41-   C45-   C48-  C123
   292    294    296    322      9   180.00   0.83680   1 ;    C41-   C45-   C48-  C123
   292    294    296    322      9   180.00   1.04600   2 ;    C41-   C45-   C48-  C123
   292    294    296    323      9     0.00   0.75312   3 ;    C41-   C45-   C48-  C126
   292    294    296    323      9   180.00   0.83680   1 ;    C41-   C45-   C48-  C126
   292    294    296    323      9   180.00   1.04600   2 ;    C41-   C45-   C48-  C126
   292    300    299    298      9     0.00   0.75312   3 ;    C41-   C57-   C54-   C51
   292    300    299    298      9   180.00   0.83680   1 ;    C41-   C57-   C54-   C51
   292    300    299    298      9   180.00   1.04600   2 ;    C41-   C57-   C54-   C51
   292    300    299    304      9     0.00   0.75312   3 ;    C41-   C57-   C54-   C69
   292    300    299    304      9   180.00   0.83680   1 ;    C41-   C57-   C54-   C69
   292    300    299    304      9   180.00   1.04600   2 ;    C41-   C57-   C54-   C69
   292    300    299    319      9     0.00   0.75312   3 ;    C41-   C57-   C54-  C114
   292    300    299    319      9   180.00   0.83680   1 ;    C41-   C57-   C54-  C114
   292    300    299    319      9   180.00   1.04600   2 ;    C41-   C57-   C54-  C114
   293    294    292    300      9     0.00   0.65084   3 ;    O15-   C45-   C41-   C57
   293    294    292    329      9     0.00   0.00000   0 ;    O15-   C45-   C41-   H84
   293    294    292    329      9     0.00   1.04600   1 ;    O15-   C45-   C41-   H84
   293    294    292    330      9     0.00   0.00000   0 ;    O15-   C45-   C41-   H87
   293    294    292    330      9     0.00   1.04600   1 ;    O15-   C45-   C41-   H87
   293    294    296    298      9     0.00   0.65084   3 ;    O15-   C45-   C48-   C51
   293    294    296    322      9     0.00   0.65084   3 ;    O15-   C45-   C48-  C123
   293    294    296    323      9     0.00   0.65084   3 ;    O15-   C45-   C48-  C126
   294    292    300    299      9     0.00   0.75312   3 ;    C45-   C41-   C57-   C54
   294    292    300    299      9   180.00   0.83680   1 ;    C45-   C41-   C57-   C54
   294    292    300    299      9   180.00   1.04600   2 ;    C45-   C41-   C57-   C54
   294    292    300    332      9     0.00   0.66944   3 ;    C45-   C41-   C57-   H93
   294    292    300    333      9     0.00   0.66944   3 ;    C45-   C41-   C57-   H96
   294    296    298    299      9     0.00   0.75312   3 ;    C45-   C48-   C51-   C54
   294    296    298    299      9   180.00   0.83680   1 ;    C45-   C48-   C51-   C54
   294    296    298    299      9   180.00   1.04600   2 ;    C45-   C48-   C51-   C54
   294    296    298    301      9     0.00   0.75312   3 ;    C45-   C48-   C51-   C60
   294    296    298    301      9   180.00   0.83680   1 ;    C45-   C48-   C51-   C60
   294    296    298    301      9   180.00   1.04600   2 ;    C45-   C48-   C51-   C60
   294    296    298    328      9     0.00   0.66944   3 ;    C45-   C48-   C51-   H81
   294    296    322    364      9     0.00   0.66944   3 ;    C45-   C48-  C123-  H189
   294    296    322    365      9     0.00   0.66944   3 ;    C45-   C48-  C123-  H192
   294    296    322    366      9     0.00   0.66944   3 ;    C45-   C48-  C123-  H195
   294    296    323    367      9     0.00   0.66944   3 ;    C45-   C48-  C126-  H198
   294    296    323    368      9     0.00   0.66944   3 ;    C45-   C48-  C126-  H201
   294    296    323    369      9     0.00   0.66944   3 ;    C45-   C48-  C126-  H204
   295    317    311    310      9     0.00   0.29288   2 ;    N13-  C108-   C90-   C87
   295    317    311    310      9     0.00   0.41840   4 ;    N13-  C108-   C90-   C87
   295    317    311    312      9     0.00   0.29288   2 ;    N13-  C108-   C90-   C93
   295    317    311    312      9     0.00   0.41840   4 ;    N13-  C108-   C90-   C93
   295    317    311    313      9     0.00   0.29288   2 ;    N13-  C108-   C90-   C96
   295    317    311    313      9     0.00   0.41840   4 ;    N13-  C108-   C90-   C96
   296    294    292    300      9     0.00   0.75312   3 ;    C48-   C45-   C41-   C57
   296    294    292    300      9   180.00   0.83680   1 ;    C48-   C45-   C41-   C57
   296    294    292    300      9   180.00   1.04600   2 ;    C48-   C45-   C41-   C57
   296    294    292    329      9     0.00   0.66944   3 ;    C48-   C45-   C41-   H84
   296    294    292    330      9     0.00   0.66944   3 ;    C48-   C45-   C41-   H87
   296    294    293    357      9     0.00   0.66944   3 ;    C48-   C45-   O15-  H168
   296    294    293    357      9     0.00   1.04600   1 ;    C48-   C45-   O15-  H168
   296    298    299    300      9     0.00   0.75312   3 ;    C48-   C51-   C54-   C57
   296    298    299    300      9   180.00   0.83680   1 ;    C48-   C51-   C54-   C57
   296    298    299    300      9   180.00   1.04600   2 ;    C48-   C51-   C54-   C57
   296    298    299    304      9     0.00   0.75312   3 ;    C48-   C51-   C54-   C69
   296    298    299    304      9   180.00   0.83680   1 ;    C48-   C51-   C54-   C69
   296    298    299    304      9   180.00   1.04600   2 ;    C48-   C51-   C54-   C69
   296    298    299    319      9     0.00   0.75312   3 ;    C48-   C51-   C54-  C114
   296    298    299    319      9   180.00   0.83680   1 ;    C48-   C51-   C54-  C114
   296    298    299    319      9   180.00   1.04600   2 ;    C48-   C51-   C54-  C114
   296    298    301    302      9     0.00   0.75312   3 ;    C48-   C51-   C60-   C63
   296    298    301    302      9   180.00   0.83680   1 ;    C48-   C51-   C60-   C63
   296    298    301    302      9   180.00   1.04600   2 ;    C48-   C51-   C60-   C63
   296    298    301    334      9     0.00   0.66944   3 ;    C48-   C51-   C60-   H99
   296    298    301    335      9     0.00   0.66944   3 ;    C48-   C51-   C60-  H102
   297    317    295    325      9   180.00  10.46000   2 ;    O18-  C108-   N13-   C42
   297    317    295    373      9     0.00   8.36800   1 ;    O18-  C108-   N13-   H75
   297    317    295    373      9   180.00  10.46000   2 ;    O18-  C108-   N13-   H75
   297    317    311    310      9   180.00   0.00000   2 ;    O18-  C108-   C90-   C87
   297    317    311    312      9   180.00   0.00000   2 ;    O18-  C108-   C90-   C93
   297    317    311    313      9   180.00   0.00000   2 ;    O18-  C108-   C90-   C96
   298    296    294    331      9     0.00   0.65084   3 ;    C51-   C48-   C45-   H90
   298    296    322    364      9     0.00   0.66944   3 ;    C51-   C48-  C123-  H189
   298    296    322    365      9     0.00   0.66944   3 ;    C51-   C48-  C123-  H192
   298    296    322    366      9     0.00   0.66944   3 ;    C51-   C48-  C123-  H195
   298    296    323    367      9     0.00   0.66944   3 ;    C51-   C48-  C126-  H198
   298    296    323    368      9     0.00   0.66944   3 ;    C51-   C48-  C126-  H201
   298    296    323    369      9     0.00   0.66944   3 ;    C51-   C48-  C126-  H204
   298    299    300    332      9     0.00   0.66944   3 ;    C51-   C54-   C57-   H93
   298    299    300    333      9     0.00   0.66944   3 ;    C51-   C54-   C57-   H96
   298    299    304    303      9     0.00   0.75312   3 ;    C51-   C54-   C69-   C66
   298    299    304    303      9   180.00   0.83680   1 ;    C51-   C54-   C69-   C66
   298    299    304    303      9   180.00   1.04600   2 ;    C51-   C54-   C69-   C66
   298    299    304    308      9     0.00   0.75312   3 ;    C51-   C54-   C69-   C81
   298    299    304    308      9   180.00   0.83680   1 ;    C51-   C54-   C69-   C81
   298    299    304    308      9   180.00   1.04600   2 ;    C51-   C54-   C69-   C81
   298    299    304    327      9     0.00   0.66944   3 ;    C51-   C54-   C69-   H78
   298    299    319    354      9     0.00   0.66944   3 ;    C51-   C54-  C114-  H159
   298    299    319    355      9     0.00   0.66944   3 ;    C51-   C54-  C114-  H162
   298    299    319    356      9     0.00   0.66944   3 ;    C51-   C54-  C114-  H165
   298    301    302    303      9     0.00   0.75312   3 ;    C51-   C60-   C63-   C66
   298    301    302    303      9   180.00   0.83680   1 ;    C51-   C60-   C63-   C66
   298    301    302    303      9   180.00   1.04600   2 ;    C51-   C60-   C63-   C66
   298    301    302    336      9     0.00   0.66944   3 ;    C51-   C60-   C63-  H105
   298    301    302    337      9     0.00   0.66944   3 ;    C51-   C60-   C63-  H108
   299    298    296    322      9     0.00   0.75312   3 ;    C54-   C51-   C48-  C123
   299    298    296    322      9   180.00   0.83680   1 ;    C54-   C51-   C48-  C123
   299    298    296    322      9   180.00   1.04600   2 ;    C54-   C51-   C48-  C123
   299    298    296    323      9     0.00   0.75312   3 ;    C54-   C51-   C48-  C126
   299    298    296    323      9   180.00   0.83680   1 ;    C54-   C51-   C48-  C126
   299    298    296    323      9   180.00   1.04600   2 ;    C54-   C51-   C48-  C126
   299    298    301    302      9     0.00   0.75312   3 ;    C54-   C51-   C60-   C63
   299    298    301    302      9   180.00   0.83680   1 ;    C54-   C51-   C60-   C63
   299    298    301    302      9   180.00   1.04600   2 ;    C54-   C51-   C60-   C63
   299    298    301    334      9     0.00   0.66944   3 ;    C54-   C51-   C60-   H99
   299    298    301    335      9     0.00   0.66944   3 ;    C54-   C51-   C60-  H102
   299    300    292    329      9     0.00   0.66944   3 ;    C54-   C57-   C41-   H84
   299    300    292    330      9     0.00   0.66944   3 ;    C54-   C57-   C41-   H87
   299    304    303    302      9     0.00   0.75312   3 ;    C54-   C69-   C66-   C63
   299    304    303    302      9   180.00   0.83680   1 ;    C54-   C69-   C66-   C63
   299    304    303    302      9   180.00   1.04600   2 ;    C54-   C69-   C66-   C63
   299    304    303    305      9     0.00   0.75312   3 ;    C54-   C69-   C66-   C72
   299    304    303    305      9   180.00   0.83680   1 ;    C54-   C69-   C66-   C72
   299    304    303    305      9   180.00   1.04600   2 ;    C54-   C69-   C66-   C72
   299    304    303    318      9     0.00   0.75312   3 ;    C54-   C69-   C66-  C111
   299    304    303    318      9   180.00   0.83680   1 ;    C54-   C69-   C66-  C111
   299    304    303    318      9   180.00   1.04600   2 ;    C54-   C69-   C66-  C111
   299    304    308    307      9     0.00   0.65084   3 ;    C54-   C69-   C81-   C78
   299    304    308    339      9     0.00   0.66944   3 ;    C54-   C69-   C81-  H114
   299    304    308    340      9     0.00   0.66944   3 ;    C54-   C69-   C81-  H117
   300    292    294    331      9     0.00   0.65084   3 ;    C57-   C41-   C45-   H90
   300    299    298    301      9     0.00   0.75312   3 ;    C57-   C54-   C51-   C60
   300    299    298    301      9   180.00   0.83680   1 ;    C57-   C54-   C51-   C60
   300    299    298    301      9   180.00   1.04600   2 ;    C57-   C54-   C51-   C60
   300    299    298    328      9     0.00   0.66944   3 ;    C57-   C54-   C51-   H81
   300    299    304    303      9     0.00   0.75312   3 ;    C57-   C54-   C69-   C66
   300    299    304    303      9   180.00   0.83680   1 ;    C57-   C54-   C69-   C66
   300    299    304    303      9   180.00   1.04600   2 ;    C57-   C54-   C69-   C66
   300    299    304    308      9     0.00   0.75312   3 ;    C57-   C54-   C69-   C81
   300    299    304    308      9   180.00   0.83680   1 ;    C57-   C54-   C69-   C81
   300    299    304    308      9   180.00   1.04600   2 ;    C57-   C54-   C69-   C81
   300    299    304    327      9     0.00   0.66944   3 ;    C57-   C54-   C69-   H78
   300    299    319    354      9     0.00   0.66944   3 ;    C57-   C54-  C114-  H159
   300    299    319    355      9     0.00   0.66944   3 ;    C57-   C54-  C114-  H162
   300    299    319    356      9     0.00   0.66944   3 ;    C57-   C54-  C114-  H165
   301    298    296    322      9     0.00   0.75312   3 ;    C60-   C51-   C48-  C123
   301    298    296    322      9   180.00   0.83680   1 ;    C60-   C51-   C48-  C123
   301    298    296    322      9   180.00   1.04600   2 ;    C60-   C51-   C48-  C123
   301    298    296    323      9     0.00   0.75312   3 ;    C60-   C51-   C48-  C126
   301    298    296    323      9   180.00   0.83680   1 ;    C60-   C51-   C48-  C126
   301    298    296    323      9   180.00   1.04600   2 ;    C60-   C51-   C48-  C126
   301    298    299    304      9     0.00   0.75312   3 ;    C60-   C51-   C54-   C69
   301    298    299    304      9   180.00   0.83680   1 ;    C60-   C51-   C54-   C69
   301    298    299    304      9   180.00   1.04600   2 ;    C60-   C51-   C54-   C69
   301    298    299    319      9     0.00   0.75312   3 ;    C60-   C51-   C54-  C114
   301    298    299    319      9   180.00   0.83680   1 ;    C60-   C51-   C54-  C114
   301    298    299    319      9   180.00   1.04600   2 ;    C60-   C51-   C54-  C114
   301    302    303    304      9     0.00   0.75312   3 ;    C60-   C63-   C66-   C69
   301    302    303    304      9   180.00   0.83680   1 ;    C60-   C63-   C66-   C69
   301    302    303    304      9   180.00   1.04600   2 ;    C60-   C63-   C66-   C69
   301    302    303    305      9     0.00   0.75312   3 ;    C60-   C63-   C66-   C72
   301    302    303    305      9   180.00   0.83680   1 ;    C60-   C63-   C66-   C72
   301    302    303    305      9   180.00   1.04600   2 ;    C60-   C63-   C66-   C72
   301    302    303    318      9     0.00   0.75312   3 ;    C60-   C63-   C66-  C111
   301    302    303    318      9   180.00   0.83680   1 ;    C60-   C63-   C66-  C111
   301    302    303    318      9   180.00   1.04600   2 ;    C60-   C63-   C66-  C111
   302    301    298    328      9     0.00   0.66944   3 ;    C63-   C60-   C51-   H81
   302    303    304    308      9     0.00   0.75312   3 ;    C63-   C66-   C69-   C81
   302    303    304    308      9   180.00   0.83680   1 ;    C63-   C66-   C69-   C81
   302    303    304    308      9   180.00   1.04600   2 ;    C63-   C66-   C69-   C81
   302    303    304    327      9     0.00   0.66944   3 ;    C63-   C66-   C69-   H78
   302    303    305    306      9     0.00   0.65084   3 ;    C63-   C66-   C72-   C75
   302    303    305    309      9     0.00   0.75312   3 ;    C63-   C66-   C72-   C84
   302    303    305    309      9   180.00   0.83680   1 ;    C63-   C66-   C72-   C84
   302    303    305    309      9   180.00   1.04600   2 ;    C63-   C66-   C72-   C84
   302    303    305    321      9     0.00   0.75312   3 ;    C63-   C66-   C72-  C120
   302    303    305    321      9   180.00   0.83680   1 ;    C63-   C66-   C72-  C120
   302    303    305    321      9   180.00   1.04600   2 ;    C63-   C66-   C72-  C120
   302    303    318    351      9     0.00   0.66944   3 ;    C63-   C66-  C111-  H150
   302    303    318    352      9     0.00   0.66944   3 ;    C63-   C66-  C111-  H153
   302    303    318    353      9     0.00   0.66944   3 ;    C63-   C66-  C111-  H156
   303    302    301    334      9     0.00   0.66944   3 ;    C66-   C63-   C60-   H99
   303    302    301    335      9     0.00   0.66944   3 ;    C66-   C63-   C60-  H102
   303    304    299    319      9     0.00   0.75312   3 ;    C66-   C69-   C54-  C114
   303    304    299    319      9   180.00   0.83680   1 ;    C66-   C69-   C54-  C114
   303    304    299    319      9   180.00   1.04600   2 ;    C66-   C69-   C54-  C114
   303    304    308    307      9     0.00   0.65084   3 ;    C66-   C69-   C81-   C78
   303    304    308    339      9     0.00   0.66944   3 ;    C66-   C69-   C81-  H114
   303    304    308    340      9     0.00   0.66944   3 ;    C66-   C69-   C81-  H117
   303    305    306    307      9     0.00   0.00000   0 ;    C66-   C72-   C75-   C78
   303    305    306    312      9     0.00   0.00000   0 ;    C66-   C72-   C75-   C93
   303    305    309    310      9     0.00   0.75312   3 ;    C66-   C72-   C84-   C87
   303    305    309    310      9   180.00   0.83680   1 ;    C66-   C72-   C84-   C87
   303    305    309    310      9   180.00   1.04600   2 ;    C66-   C72-   C84-   C87
   303    305    309    341      9     0.00   0.66944   3 ;    C66-   C72-   C84-  H120
   303    305    309    342      9     0.00   0.66944   3 ;    C66-   C72-   C84-  H123
   303    305    321    361      9     0.00   0.66944   3 ;    C66-   C72-  C120-  H180
   303    305    321    362      9     0.00   0.66944   3 ;    C66-   C72-  C120-  H183
   303    305    321    363      9     0.00   0.66944   3 ;    C66-   C72-  C120-  H186
   304    299    298    328      9     0.00   0.66944   3 ;    C69-   C54-   C51-   H81
   304    299    300    332      9     0.00   0.66944   3 ;    C69-   C54-   C57-   H93
   304    299    300    333      9     0.00   0.66944   3 ;    C69-   C54-   C57-   H96
   304    299    319    354      9     0.00   0.66944   3 ;    C69-   C54-  C114-  H159
   304    299    319    355      9     0.00   0.66944   3 ;    C69-   C54-  C114-  H162
   304    299    319    356      9     0.00   0.66944   3 ;    C69-   C54-  C114-  H165
   304    303    302    336      9     0.00   0.66944   3 ;    C69-   C66-   C63-  H105
   304    303    302    337      9     0.00   0.66944   3 ;    C69-   C66-   C63-  H108
   304    303    305    306      9     0.00   0.65084   3 ;    C69-   C66-   C72-   C75
   304    303    305    309      9     0.00   0.75312   3 ;    C69-   C66-   C72-   C84
   304    303    305    309      9   180.00   0.83680   1 ;    C69-   C66-   C72-   C84
   304    303    305    309      9   180.00   1.04600   2 ;    C69-   C66-   C72-   C84
   304    303    305    321      9     0.00   0.75312   3 ;    C69-   C66-   C72-  C120
   304    303    305    321      9   180.00   0.83680   1 ;    C69-   C66-   C72-  C120
   304    303    305    321      9   180.00   1.04600   2 ;    C69-   C66-   C72-  C120
   304    303    318    351      9     0.00   0.66944   3 ;    C69-   C66-  C111-  H150
   304    303    318    352      9     0.00   0.66944   3 ;    C69-   C66-  C111-  H153
   304    303    318    353      9     0.00   0.66944   3 ;    C69-   C66-  C111-  H156
   304    308    307    306      9     0.00   0.00000   0 ;    C69-   C81-   C78-   C75
   304    308    307    338      9     0.00   0.00000   0 ;    C69-   C81-   C78-  H111
   305    303    302    336      9     0.00   0.66944   3 ;    C72-   C66-   C63-  H105
   305    303    302    337      9     0.00   0.66944   3 ;    C72-   C66-   C63-  H108
   305    303    304    308      9     0.00   0.75312   3 ;    C72-   C66-   C69-   C81
   305    303    304    308      9   180.00   0.83680   1 ;    C72-   C66-   C69-   C81
   305    303    304    308      9   180.00   1.04600   2 ;    C72-   C66-   C69-   C81
   305    303    304    327      9     0.00   0.66944   3 ;    C72-   C66-   C69-   H78
   305    303    318    351      9     0.00   0.66944   3 ;    C72-   C66-  C111-  H150
   305    303    318    352      9     0.00   0.66944   3 ;    C72-   C66-  C111-  H153
   305    303    318    353      9     0.00   0.66944   3 ;    C72-   C66-  C111-  H156
   305    306    307    308      9   180.00   7.94960   1 ;    C72-   C75-   C78-   C81
   305    306    307    308      9   180.00  27.82360   2 ;    C72-   C75-   C78-   C81
   305    306    307    338      9   180.00  27.82360   2 ;    C72-   C75-   C78-  H111
   305    306    312    311      9     0.00   0.00000   0 ;    C72-   C75-   C93-   C90
   305    306    312    316      9     0.00   0.00000   0 ;    C72-   C75-   C93-  C105
   305    306    312    326      9     0.00   0.00000   0 ;    C72-   C75-   C93-   H74
   305    309    310    311      9     0.00   0.75312   3 ;    C72-   C84-   C87-   C90
   305    309    310    311      9   180.00   0.83680   1 ;    C72-   C84-   C87-   C90
   305    309    310    311      9   180.00   1.04600   2 ;    C72-   C84-   C87-   C90
   305    309    310    343      9     0.00   0.66944   3 ;    C72-   C84-   C87-  H126
   305    309    310    344      9     0.00   0.66944   3 ;    C72-   C84-   C87-  H129
   306    305    303    318      9     0.00   0.65084   3 ;    C75-   C72-   C66-  C111
   306    305    309    310      9     0.00   0.65084   3 ;    C75-   C72-   C84-   C87
   306    305    309    341      9     0.00   0.65084   3 ;    C75-   C72-   C84-  H120
   306    305    309    342      9     0.00   0.65084   3 ;    C75-   C72-   C84-  H123
   306    305    321    361      9     0.00   0.65084   3 ;    C75-   C72-  C120-  H180
   306    305    321    362      9     0.00   0.65084   3 ;    C75-   C72-  C120-  H183
   306    305    321    363      9     0.00   0.65084   3 ;    C75-   C72-  C120-  H186
   306    307    308    339      9     0.00   0.00000   0 ;    C75-   C78-   C81-  H114
   306    307    308    339      9     0.00   4.81160   1 ;    C75-   C78-   C81-  H114
   306    307    308    339      9   180.00   1.58992   3 ;    C75-   C78-   C81-  H114
   306    307    308    340      9     0.00   0.00000   0 ;    C75-   C78-   C81-  H117
   306    307    308    340      9     0.00   4.81160   1 ;    C75-   C78-   C81-  H117
   306    307    308    340      9   180.00   1.58992   3 ;    C75-   C78-   C81-  H117
   306    312    311    310      9     0.00   0.65084   3 ;    C75-   C93-   C90-   C87
   306    312    311    313      9     0.00   0.65084   3 ;    C75-   C93-   C90-   C96
   306    312    311    317      9     0.00   0.65084   3 ;    C75-   C93-   C90-  C108
   306    312    316    315      9     0.00   0.65084   3 ;    C75-   C93-  C105-  C102
   306    312    316    349      9     0.00   0.65084   3 ;    C75-   C93-  C105-  H144
   306    312    316    350      9     0.00   0.65084   3 ;    C75-   C93-  C105-  H147
   307    306    305    309      9     0.00   0.00000   0 ;    C78-   C75-   C72-   C84
   307    306    305    321      9     0.00   0.00000   0 ;    C78-   C75-   C72-  C120
   307    306    312    311      9     0.00   0.00000   0 ;    C78-   C75-   C93-   C90
   307    306    312    316      9     0.00   0.00000   0 ;    C78-   C75-   C93-  C105
   307    306    312    326      9     0.00   0.00000   0 ;    C78-   C75-   C93-   H74
   307    306    312    326      9     0.00   4.81160   1 ;    C78-   C75-   C93-   H74
   307    306    312    326      9   180.00   1.58992   3 ;    C78-   C75-   C93-   H74
   307    308    304    327      9     0.00   0.65084   3 ;    C78-   C81-   C69-   H78
   308    304    299    319      9     0.00   0.75312   3 ;    C81-   C69-   C54-  C114
   308    304    299    319      9   180.00   0.83680   1 ;    C81-   C69-   C54-  C114
   308    304    299    319      9   180.00   1.04600   2 ;    C81-   C69-   C54-  C114
   308    304    303    318      9     0.00   0.75312   3 ;    C81-   C69-   C66-  C111
   308    304    303    318      9   180.00   0.83680   1 ;    C81-   C69-   C66-  C111
   308    304    303    318      9   180.00   1.04600   2 ;    C81-   C69-   C66-  C111
   308    307    306    312      9   180.00   7.94960   1 ;    C81-   C78-   C75-   C93
   308    307    306    312      9   180.00  27.82360   2 ;    C81-   C78-   C75-   C93
   309    305    303    318      9     0.00   0.75312   3 ;    C84-   C72-   C66-  C111
   309    305    303    318      9   180.00   0.83680   1 ;    C84-   C72-   C66-  C111
   309    305    303    318      9   180.00   1.04600   2 ;    C84-   C72-   C66-  C111
   309    305    306    312      9     0.00   0.00000   0 ;    C84-   C72-   C75-   C93
   309    305    321    361      9     0.00   0.66944   3 ;    C84-   C72-  C120-  H180
   309    305    321    362      9     0.00   0.66944   3 ;    C84-   C72-  C120-  H183
   309    305    321    363      9     0.00   0.66944   3 ;    C84-   C72-  C120-  H186
   309    310    311    312      9     0.00   0.75312   3 ;    C84-   C87-   C90-   C93
   309    310    311    312      9   180.00   0.83680   1 ;    C84-   C87-   C90-   C93
   309    310    311    312      9   180.00   1.04600   2 ;    C84-   C87-   C90-   C93
   309    310    311    313      9     0.00   0.75312   3 ;    C84-   C87-   C90-   C96
   309    310    311    313      9   180.00   0.83680   1 ;    C84-   C87-   C90-   C96
   309    310    311    313      9   180.00   1.04600   2 ;    C84-   C87-   C90-   C96
   309    310    311    317      9     0.00   0.65084   3 ;    C84-   C87-   C90-  C108
   310    309    305    321      9     0.00   0.75312   3 ;    C87-   C84-   C72-  C120
   310    309    305    321      9   180.00   0.83680   1 ;    C87-   C84-   C72-  C120
   310    309    305    321      9   180.00   1.04600   2 ;    C87-   C84-   C72-  C120
   310    311    312    316      9     0.00   0.75312   3 ;    C87-   C90-   C93-  C105
   310    311    312    316      9   180.00   0.83680   1 ;    C87-   C90-   C93-  C105
   310    311    312    316      9   180.00   1.04600   2 ;    C87-   C90-   C93-  C105
   310    311    312    326      9     0.00   0.66944   3 ;    C87-   C90-   C93-   H74
   310    311    313    314      9     0.00   0.75312   3 ;    C87-   C90-   C96-   C99
   310    311    313    314      9   180.00   0.83680   1 ;    C87-   C90-   C96-   C99
   310    311    313    314      9   180.00   1.04600   2 ;    C87-   C90-   C96-   C99
   310    311    313    345      9     0.00   0.66944   3 ;    C87-   C90-   C96-  H132
   310    311    313    346      9     0.00   0.66944   3 ;    C87-   C90-   C96-  H135
   311    310    309    341      9     0.00   0.66944   3 ;    C90-   C87-   C84-  H120
   311    310    309    342      9     0.00   0.66944   3 ;    C90-   C87-   C84-  H123
   311    312    316    315      9     0.00   0.75312   3 ;    C90-   C93-  C105-  C102
   311    312    316    315      9   180.00   0.83680   1 ;    C90-   C93-  C105-  C102
   311    312    316    315      9   180.00   1.04600   2 ;    C90-   C93-  C105-  C102
   311    312    316    349      9     0.00   0.66944   3 ;    C90-   C93-  C105-  H144
   311    312    316    350      9     0.00   0.66944   3 ;    C90-   C93-  C105-  H147
   311    313    314    315      9     0.00   0.75312   3 ;    C90-   C96-   C99-  C102
   311    313    314    315      9   180.00   0.83680   1 ;    C90-   C96-   C99-  C102
   311    313    314    315      9   180.00   1.04600   2 ;    C90-   C96-   C99-  C102
   311    313    314    347      9     0.00   0.66944   3 ;    C90-   C96-   C99-  H138
   311    313    314    348      9     0.00   0.66944   3 ;    C90-   C96-   C99-  H141
   311    317    295    325      9     0.00   0.00000   0 ;    C90-  C108-   N13-   C42
   311    317    295    325      9   180.00   6.27600   1 ;    C90-  C108-   N13-   C42
   311    317    295    373      9   180.00  10.46000   2 ;    C90-  C108-   N13-   H75
   312    306    305    321      9     0.00   0.00000   0 ;    C93-   C75-   C72-  C120
   312    306    307    338      9   180.00  27.82360   2 ;    C93-   C75-   C78-  H111
   312    311    310    343      9     0.00   0.66944   3 ;    C93-   C90-   C87-  H126
   312    311    310    344      9     0.00   0.66944   3 ;    C93-   C90-   C87-  H129
   312    311    313    314      9     0.00   0.75312   3 ;    C93-   C90-   C96-   C99
   312    311    313    314      9   180.00   0.83680   1 ;    C93-   C90-   C96-   C99
   312    311    313    314      9   180.00   1.04600   2 ;    C93-   C90-   C96-   C99
   312    311    313    345      9     0.00   0.66944   3 ;    C93-   C90-   C96-  H132
   312    311    313    346      9     0.00   0.66944   3 ;    C93-   C90-   C96-  H135
   312    316    315    314      9     0.00   0.75312   3 ;    C93-  C105-  C102-   C99
   312    316    315    314      9   180.00   0.83680   1 ;    C93-  C105-  C102-   C99
   312    316    315    314      9   180.00   1.04600   2 ;    C93-  C105-  C102-   C99
   312    316    315    320      9     0.00   0.75312   3 ;    C93-  C105-  C102-  C117
   312    316    315    320      9   180.00   0.83680   1 ;    C93-  C105-  C102-  C117
   312    316    315    320      9   180.00   1.04600   2 ;    C93-  C105-  C102-  C117
   312    316    315    324      9     0.00   0.75312   3 ;    C93-  C105-  C102-  C129
   312    316    315    324      9   180.00   0.83680   1 ;    C93-  C105-  C102-  C129
   312    316    315    324      9   180.00   1.04600   2 ;    C93-  C105-  C102-  C129
   313    311    310    343      9     0.00   0.66944   3 ;    C96-   C90-   C87-  H126
   313    311    310    344      9     0.00   0.66944   3 ;    C96-   C90-   C87-  H129
   313    311    312    316      9     0.00   0.75312   3 ;    C96-   C90-   C93-  C105
   313    311    312    316      9   180.00   0.83680   1 ;    C96-   C90-   C93-  C105
   313    311    312    316      9   180.00   1.04600   2 ;    C96-   C90-   C93-  C105
   313    311    312    326      9     0.00   0.66944   3 ;    C96-   C90-   C93-   H74
   313    314    315    316      9     0.00   0.75312   3 ;    C96-   C99-  C102-  C105
   313    314    315    316      9   180.00   0.83680   1 ;    C96-   C99-  C102-  C105
   313    314    315    316      9   180.00   1.04600   2 ;    C96-   C99-  C102-  C105
   313    314    315    320      9     0.00   0.75312   3 ;    C96-   C99-  C102-  C117
   313    314    315    320      9   180.00   0.83680   1 ;    C96-   C99-  C102-  C117
   313    314    315    320      9   180.00   1.04600   2 ;    C96-   C99-  C102-  C117
   313    314    315    324      9     0.00   0.75312   3 ;    C96-   C99-  C102-  C129
   313    314    315    324      9   180.00   0.83680   1 ;    C96-   C99-  C102-  C129
   313    314    315    324      9   180.00   1.04600   2 ;    C96-   C99-  C102-  C129
   314    313    311    317      9     0.00   0.65084   3 ;    C99-   C96-   C90-  C108
   314    315    316    349      9     0.00   0.66944   3 ;    C99-  C102-  C105-  H144
   314    315    316    350      9     0.00   0.66944   3 ;    C99-  C102-  C105-  H147
   314    315    320    358      9     0.00   0.66944   3 ;    C99-  C102-  C117-  H171
   314    315    320    359      9     0.00   0.66944   3 ;    C99-  C102-  C117-  H174
   314    315    320    360      9     0.00   0.66944   3 ;    C99-  C102-  C117-  H177
   314    315    324    370      9     0.00   0.66944   3 ;    C99-  C102-  C129-  H207
   314    315    324    371      9     0.00   0.66944   3 ;    C99-  C102-  C129-  H210
   314    315    324    372      9     0.00   0.66944   3 ;    C99-  C102-  C129-  H213
   315    314    313    345      9     0.00   0.66944   3 ;   C102-   C99-   C96-  H132
   315    314    313    346      9     0.00   0.66944   3 ;   C102-   C99-   C96-  H135
   315    316    312    326      9     0.00   0.66944   3 ;   C102-  C105-   C93-   H74
   316    312    311    317      9     0.00   0.65084   3 ;   C105-   C93-   C90-  C108
   316    315    314    347      9     0.00   0.66944   3 ;   C105-  C102-   C99-  H138
   316    315    314    348      9     0.00   0.66944   3 ;   C105-  C102-   C99-  H141
   316    315    320    358      9     0.00   0.66944   3 ;   C105-  C102-  C117-  H171
   316    315    320    359      9     0.00   0.66944   3 ;   C105-  C102-  C117-  H174
   316    315    320    360      9     0.00   0.66944   3 ;   C105-  C102-  C117-  H177
   316    315    324    370      9     0.00   0.66944   3 ;   C105-  C102-  C129-  H207
   316    315    324    371      9     0.00   0.66944   3 ;   C105-  C102-  C129-  H210
   316    315    324    372      9     0.00   0.66944   3 ;   C105-  C102-  C129-  H213
   317    311    310    343      9     0.00   0.65084   3 ;   C108-   C90-   C87-  H126
   317    311    310    344      9     0.00   0.65084   3 ;   C108-   C90-   C87-  H129
   317    311    312    326      9     0.00   0.65084   3 ;   C108-   C90-   C93-   H74
   317    311    313    345      9     0.00   0.65084   3 ;   C108-   C90-   C96-  H132
   317    311    313    346      9     0.00   0.65084   3 ;   C108-   C90-   C96-  H135
   318    303    302    336      9     0.00   0.66944   3 ;   C111-   C66-   C63-  H105
   318    303    302    337      9     0.00   0.66944   3 ;   C111-   C66-   C63-  H108
   318    303    304    327      9     0.00   0.66944   3 ;   C111-   C66-   C69-   H78
   318    303    305    321      9     0.00   0.75312   3 ;   C111-   C66-   C72-  C120
   318    303    305    321      9   180.00   0.83680   1 ;   C111-   C66-   C72-  C120
   318    303    305    321      9   180.00   1.04600   2 ;   C111-   C66-   C72-  C120
   319    299    298    328      9     0.00   0.66944   3 ;   C114-   C54-   C51-   H81
   319    299    300    332      9     0.00   0.66944   3 ;   C114-   C54-   C57-   H93
   319    299    300    333      9     0.00   0.66944   3 ;   C114-   C54-   C57-   H96
   319    299    304    327      9     0.00   0.66944   3 ;   C114-   C54-   C69-   H78
   320    315    314    347      9     0.00   0.66944   3 ;   C117-  C102-   C99-  H138
   320    315    314    348      9     0.00   0.66944   3 ;   C117-  C102-   C99-  H141
   320    315    316    349      9     0.00   0.66944   3 ;   C117-  C102-  C105-  H144
   320    315    316    350      9     0.00   0.66944   3 ;   C117-  C102-  C105-  H147
   320    315    324    370      9     0.00   0.66944   3 ;   C117-  C102-  C129-  H207
   320    315    324    371      9     0.00   0.66944   3 ;   C117-  C102-  C129-  H210
   320    315    324    372      9     0.00   0.66944   3 ;   C117-  C102-  C129-  H213
   321    305    309    341      9     0.00   0.66944   3 ;   C120-   C72-   C84-  H120
   321    305    309    342      9     0.00   0.66944   3 ;   C120-   C72-   C84-  H123
   322    296    294    331      9     0.00   0.65084   3 ;   C123-   C48-   C45-   H90
   322    296    298    328      9     0.00   0.66944   3 ;   C123-   C48-   C51-   H81
   322    296    323    367      9     0.00   0.66944   3 ;   C123-   C48-  C126-  H198
   322    296    323    368      9     0.00   0.66944   3 ;   C123-   C48-  C126-  H201
   322    296    323    369      9     0.00   0.66944   3 ;   C123-   C48-  C126-  H204
   323    296    294    331      9     0.00   0.65084   3 ;   C126-   C48-   C45-   H90
   323    296    298    328      9     0.00   0.66944   3 ;   C126-   C48-   C51-   H81
   323    296    322    364      9     0.00   0.66944   3 ;   C126-   C48-  C123-  H189
   323    296    322    365      9     0.00   0.66944   3 ;   C126-   C48-  C123-  H192
   323    296    322    366      9     0.00   0.66944   3 ;   C126-   C48-  C123-  H195
   324    315    314    347      9     0.00   0.66944   3 ;   C129-  C102-   C99-  H138
   324    315    314    348      9     0.00   0.66944   3 ;   C129-  C102-   C99-  H141
   324    315    316    349      9     0.00   0.66944   3 ;   C129-  C102-  C105-  H144
   324    315    316    350      9     0.00   0.66944   3 ;   C129-  C102-  C105-  H147
   324    315    320    358      9     0.00   0.66944   3 ;   C129-  C102-  C117-  H171
   324    315    320    359      9     0.00   0.66944   3 ;   C129-  C102-  C117-  H174
   324    315    320    360      9     0.00   0.66944   3 ;   C129-  C102-  C117-  H177
   326    312    316    349      9     0.00   0.62760   3 ;    H74-   C93-  C105-  H144
   326    312    316    350      9     0.00   0.62760   3 ;    H74-   C93-  C105-  H147
   327    304    308    339      9     0.00   0.62760   3 ;    H78-   C69-   C81-  H114
   327    304    308    340      9     0.00   0.62760   3 ;    H78-   C69-   C81-  H117
   328    298    301    334      9     0.00   0.62760   3 ;    H81-   C51-   C60-   H99
   328    298    301    335      9     0.00   0.62760   3 ;    H81-   C51-   C60-  H102
   329    292    294    331      9     0.00   0.65084   3 ;    H84-   C41-   C45-   H90
   329    292    300    332      9     0.00   0.62760   3 ;    H84-   C41-   C57-   H93
   329    292    300    333      9     0.00   0.62760   3 ;    H84-   C41-   C57-   H96
   330    292    294    331      9     0.00   0.65084   3 ;    H87-   C41-   C45-   H90
   330    292    300    332      9     0.00   0.62760   3 ;    H87-   C41-   C57-   H93
   330    292    300    333      9     0.00   0.62760   3 ;    H87-   C41-   C57-   H96
   331    294    293    357      9     0.00   0.69733   3 ;    H90-   C45-   O15-  H168
   334    301    302    336      9     0.00   0.62760   3 ;    H99-   C60-   C63-  H105
   334    301    302    337      9     0.00   0.62760   3 ;    H99-   C60-   C63-  H108
   335    301    302    336      9     0.00   0.62760   3 ;   H102-   C60-   C63-  H105
   335    301    302    337      9     0.00   0.62760   3 ;   H102-   C60-   C63-  H108
   338    307    308    339      9     0.00   0.00000   0 ;   H111-   C78-   C81-  H114
   338    307    308    340      9     0.00   0.00000   0 ;   H111-   C78-   C81-  H117
   341    309    310    343      9     0.00   0.62760   3 ;   H120-   C84-   C87-  H126
   341    309    310    344      9     0.00   0.62760   3 ;   H120-   C84-   C87-  H129
   342    309    310    343      9     0.00   0.62760   3 ;   H123-   C84-   C87-  H126
   342    309    310    344      9     0.00   0.62760   3 ;   H123-   C84-   C87-  H129
   345    313    314    347      9     0.00   0.62760   3 ;   H132-   C96-   C99-  H138
   345    313    314    348      9     0.00   0.62760   3 ;   H132-   C96-   C99-  H141
   346    313    314    347      9     0.00   0.62760   3 ;   H135-   C96-   C99-  H138
   346    313    314    348      9     0.00   0.62760   3 ;   H135-   C96-   C99-  H141

[ dihedrals ] ; impropers
; treated as propers in GROMACS to use correct AMBER analytical function
;    i      j      k      l   func   phase     kd      pn
    15     17     16    107      4   180.00   4.60240   2 ;    C12-   C14-   C13-   H13
    16     14     15     21      4   180.00   4.60240   2 ;    C13-   C11-   C12-   C18
    20      4     26      6      4   180.00  43.93200   2 ;    C17-    N1-   C23-    O3
    26     34      4    142      4   180.00   4.60240   2 ;    C23-   C39-    N1-   H71
    48     52     49     50      4   180.00   4.60240   2 ;    C67-   C70-    N3-    N4
    53    163     52     49      4   180.00   4.60240   2 ;    C73-  H136-   C70-    N3
    54     52     53     51      4   180.00   4.60240   2 ;    C76-   C70-   C73-    N5
    55     57     56     58      4   180.00   4.60240   2 ;    C79-   C85-   C82-    N6
    56    166     57     60      4   180.00   4.60240   2 ;    C82-  H145-   C85-    N8
    61     57     60     59      4   180.00   4.60240   2 ;    C88-   C85-    N8-    N7
    75     77     76     78      4   180.00   4.60240   2 ;   C115-  C121-  C118-   N10
    76    191     77     80      4   180.00   4.60240   2 ;   C118-   H50-  C121-   N12
    81     77     80     79      4   180.00   4.60240   2 ;   C124-  C121-   N12-   N11
   225    227    226    256      4   180.00   4.60240   2 ;    C74-   C80-   C77-  H110
   226    224    225    231      4   180.00   4.60240   2 ;    C77-   C71-   C74-   C92
   230     35    236    216      4   180.00  43.93200   2 ;    C89-    N2-  C107-   O17
   236     94     35    291      4   180.00   4.60240   2 ;   C107-   C38-    N2-   H73
   306    308    307    338      4   180.00   4.60240   2 ;    C75-   C81-   C78-  H111
   307    305    306    312      4   180.00   4.60240   2 ;    C78-   C72-   C75-   C93
   311    295    317    297      4   180.00  43.93200   2 ;    C90-   N13-  C108-   O18
   317    325    295    373      4   180.00   4.60240   2 ;   C108-   C42-   N13-   H75

