[ moleculetype ]
;name            nrexcl
 UNK              3

[ atoms ]
;   nr  type  resi  res  atom  cgnr     charge      mass       ; qtot   bond_type
     1   c3     1   UNK    C1    1    -0.025930     12.01000 ; qtot -0.026
     2   oh     1   UNK    O1    2    -0.392572     16.00000 ; qtot -0.419
     3   c3     1   UNK    C2    3     0.059365     12.01000 ; qtot -0.359
     4    n     1   UNK    N1    4    -0.312618     14.01000 ; qtot -0.672
     5   c3     1   UNK    C3    5    -0.006015     12.01000 ; qtot -0.678
     6    o     1   UNK    O3    6    -0.277080     16.00000 ; qtot -0.955
     7   c3     1   UNK    C4    7    -0.028082     12.01000 ; qtot -0.983
     8   c3     1   UNK    C5    8    -0.025380     12.01000 ; qtot -1.008
     9   c3     1   UNK    C6    9    -0.044798     12.01000 ; qtot -1.053
    10   c3     1   UNK    C7   10    -0.048749     12.01000 ; qtot -1.102
    11   c3     1   UNK    C8   11    -0.046427     12.01000 ; qtot -1.148
    12   c3     1   UNK    C9   12    -0.019798     12.01000 ; qtot -1.168
    13   c3     1   UNK   C10   13    -0.026012     12.01000 ; qtot -1.194
    14   c3     1   UNK   C11   14    -0.005622     12.01000 ; qtot -1.200
    15   c2     1   UNK   C12   15    -0.063528     12.01000 ; qtot -1.263
    16   c2     1   UNK   C13   16    -0.084129     12.01000 ; qtot -1.347
    17   c3     1   UNK   C14   17    -0.030839     12.01000 ; qtot -1.378
    18   c3     1   UNK   C15   18    -0.042519     12.01000 ; qtot -1.421
    19   c3     1   UNK   C16   19    -0.037520     12.01000 ; qtot -1.458
    20   c3     1   UNK   C17   20     0.053654     12.01000 ; qtot -1.405
    21   c3     1   UNK   C18   21    -0.004977     12.01000 ; qtot -1.410
    22   c3     1   UNK   C19   22    -0.037859     12.01000 ; qtot -1.447
    23   c3     1   UNK   C20   23    -0.047063     12.01000 ; qtot -1.494
    24   c3     1   UNK   C21   24    -0.034786     12.01000 ; qtot -1.529
    25   c3     1   UNK   C22   25    -0.040467     12.01000 ; qtot -1.570
    26    c     1   UNK   C23   26     0.218532     12.01000 ; qtot -1.351
    27   c3     1   UNK   C24   27    -0.058513     12.01000 ; qtot -1.410
    28   c3     1   UNK   C25   28    -0.059057     12.01000 ; qtot -1.469
    29   c3     1   UNK   C26   29    -0.059888     12.01000 ; qtot -1.529
    30   c3     1   UNK   C27   30    -0.055324     12.01000 ; qtot -1.584
    31   c3     1   UNK   C28   31    -0.057146     12.01000 ; qtot -1.641
    32   c3     1   UNK   C29   32    -0.057146     12.01000 ; qtot -1.698
    33   c3     1   UNK   C30   33    -0.059888     12.01000 ; qtot -1.758
    34   c3     1   UNK   C31   34     0.034492     12.01000 ; qtot -1.724
    35   c3     1   UNK   C36   35     0.062204     12.01000 ; qtot -1.661
    36   os     1   UNK    O9   36    -0.377448     16.00000 ; qtot -2.039
    37   c3     1   UNK   C41   37     0.070069     12.01000 ; qtot -1.969
    38   c3     1   UNK   C46   38     0.070106     12.01000 ; qtot -1.899
    39   os     1   UNK    O2   39    -0.376679     16.00000 ; qtot -2.275
    40   c3     1   UNK   C51   40     0.070107     12.01000 ; qtot -2.205
    41   c3     1   UNK   C56   41     0.070107     12.01000 ; qtot -2.135
    42   os     1   UNK   O14   42    -0.376679     16.00000 ; qtot -2.512
    43   c3     1   UNK   C61   43     0.070107     12.01000 ; qtot -2.442
    44   c3     1   UNK   C66   44     0.070107     12.01000 ; qtot -2.372
    45   os     1   UNK    O4   45    -0.376679     16.00000 ; qtot -2.748
    46   c3     1   UNK   C71   46     0.070106     12.01000 ; qtot -2.678
    47   c3     1   UNK   C76   47     0.070071     12.01000 ; qtot -2.608
    48   os     1   UNK    O5   48    -0.377356     16.00000 ; qtot -2.986
    49   c3     1   UNK   C81   49     0.064452     12.01000 ; qtot -2.921
    50   c3     1   UNK   C86   50     0.059057     12.01000 ; qtot -2.862
    51   na     1   UNK    N2   51    -0.209983     14.01000 ; qtot -3.072
    52   nc     1   UNK    N3   52    -0.076013     14.01000 ; qtot -3.148
    53   nd     1   UNK    N4   53    -0.135081     14.01000 ; qtot -3.283
    54   cc     1   UNK   C91   54     0.042148     12.01000 ; qtot -3.241
    55   cd     1   UNK   C96   55     0.106522     12.01000 ; qtot -3.134
    56   c3     1   UNK  C101   56     0.098714     12.01000 ; qtot -3.036
    57   os     1   UNK    O6   57    -0.339501     16.00000 ; qtot -3.375
    58   ca     1   UNK  C104   58     0.080650     12.01000 ; qtot -3.295
    59   ca     1   UNK  C107   59    -0.001145     12.01000 ; qtot -3.296
    60   ca     1   UNK  C110   60    -0.001145     12.01000 ; qtot -3.297
    61   ca     1   UNK  C113   61     0.080650     12.01000 ; qtot -3.216
    62   ca     1   UNK  C116   62    -0.001145     12.01000 ; qtot -3.217
    63   ca     1   UNK  C119   63     0.080650     12.01000 ; qtot -3.137
    64   os     1   UNK    O7   64    -0.339501     16.00000 ; qtot -3.476
    65   os     1   UNK    O8   65    -0.339501     16.00000 ; qtot -3.816
    66   c3     1   UNK  C122   66     0.098714     12.01000 ; qtot -3.717
    67   c3     1   UNK  C125   67     0.098714     12.01000 ; qtot -3.618
    68   hc     1   UNK    H1   68     0.036015      1.00800 ; qtot -3.582
    69   hc     1   UNK    H2   69     0.031753      1.00800 ; qtot -3.551
    70   hc     1   UNK    H3   70     0.031489      1.00800 ; qtot -3.519
    71   hc     1   UNK    H4   71     0.029341      1.00800 ; qtot -3.490
    72   hc     1   UNK    H5   72     0.029341      1.00800 ; qtot -3.460
    73   h1     1   UNK    H6   73     0.060623      1.00800 ; qtot -3.400
    74   hc     1   UNK    H7   74     0.027330      1.00800 ; qtot -3.372
    75   hc     1   UNK    H8   75     0.027330      1.00800 ; qtot -3.345
    76   hc     1   UNK    H9   76     0.027001      1.00800 ; qtot -3.318
    77   hc     1   UNK   H10   77     0.027001      1.00800 ; qtot -3.291
    78   hc     1   UNK   H11   78     0.027266      1.00800 ; qtot -3.264
    79   hc     1   UNK   H12   79     0.027266      1.00800 ; qtot -3.237
    80   ha     1   UNK   H13   80     0.057581      1.00800 ; qtot -3.179
    81   hc     1   UNK   H14   81     0.031303      1.00800 ; qtot -3.148
    82   hc     1   UNK   H15   82     0.031303      1.00800 ; qtot -3.116
    83   hc     1   UNK   H16   83     0.027599      1.00800 ; qtot -3.089
    84   hc     1   UNK   H17   84     0.027599      1.00800 ; qtot -3.061
    85   hc     1   UNK   H18   85     0.027791      1.00800 ; qtot -3.033
    86   hc     1   UNK   H19   86     0.027791      1.00800 ; qtot -3.006
    87   hc     1   UNK   H20   87     0.027779      1.00800 ; qtot -2.978
    88   hc     1   UNK   H21   88     0.027779      1.00800 ; qtot -2.950
    89   hc     1   UNK   H22   89     0.027238      1.00800 ; qtot -2.923
    90   hc     1   UNK   H23   90     0.027238      1.00800 ; qtot -2.896
    91   hc     1   UNK   H24   91     0.027851      1.00800 ; qtot -2.868
    92   hc     1   UNK   H25   92     0.027851      1.00800 ; qtot -2.840
    93   hc     1   UNK   H26   93     0.023645      1.00800 ; qtot -2.816
    94   hc     1   UNK   H27   94     0.023645      1.00800 ; qtot -2.793
    95   hc     1   UNK   H28   95     0.023645      1.00800 ; qtot -2.769
    96   hc     1   UNK   H29   96     0.023624      1.00800 ; qtot -2.745
    97   hc     1   UNK   H30   97     0.023624      1.00800 ; qtot -2.722
    98   hc     1   UNK   H31   98     0.023624      1.00800 ; qtot -2.698
    99   ho     1   UNK   H32   99     0.210479      1.00800 ; qtot -2.488
   100   hc     1   UNK   H33  100     0.023593      1.00800 ; qtot -2.464
   101   hc     1   UNK   H34  101     0.023593      1.00800 ; qtot -2.440
   102   hc     1   UNK   H35  102     0.023593      1.00800 ; qtot -2.417
   103   hc     1   UNK   H36  103     0.023952      1.00800 ; qtot -2.393
   104   hc     1   UNK   H37  104     0.023952      1.00800 ; qtot -2.369
   105   hc     1   UNK   H38  105     0.023952      1.00800 ; qtot -2.345
   106   hc     1   UNK   H39  106     0.023699      1.00800 ; qtot -2.321
   107   hc     1   UNK   H40  107     0.023699      1.00800 ; qtot -2.298
   108   hc     1   UNK   H41  108     0.023699      1.00800 ; qtot -2.274
   109   hc     1   UNK   H42  109     0.023699      1.00800 ; qtot -2.250
   110   hc     1   UNK   H43  110     0.023699      1.00800 ; qtot -2.226
   111   hc     1   UNK   H44  111     0.023699      1.00800 ; qtot -2.203
   112   hc     1   UNK   H45  112     0.023593      1.00800 ; qtot -2.179
   113   hc     1   UNK   H46  113     0.023593      1.00800 ; qtot -2.156
   114   hc     1   UNK   H47  114     0.023593      1.00800 ; qtot -2.132
   115   hn     1   UNK   H48  115     0.149444      1.00800 ; qtot -1.982
   116   h1     1   UNK   H53  116     0.049091      1.00800 ; qtot -1.933
   117   h1     1   UNK   H58  117     0.049091      1.00800 ; qtot -1.884
   118   h1     1   UNK   H63  118     0.058329      1.00800 ; qtot -1.826
   119   h1     1   UNK   H68  119     0.058329      1.00800 ; qtot -1.768
   120   h1     1   UNK   H73  120     0.059116      1.00800 ; qtot -1.709
   121   h1     1   UNK   H78  121     0.059116      1.00800 ; qtot -1.649
   122   h1     1   UNK   H83  122     0.059116      1.00800 ; qtot -1.590
   123   h1     1   UNK   H88  123     0.059116      1.00800 ; qtot -1.531
   124   h1     1   UNK   H93  124     0.059116      1.00800 ; qtot -1.472
   125   h1     1   UNK   H98  125     0.059116      1.00800 ; qtot -1.413
   126   h1     1   UNK  H103  126     0.059116      1.00800 ; qtot -1.354
   127   h1     1   UNK  H108  127     0.059116      1.00800 ; qtot -1.295
   128   h1     1   UNK  H113  128     0.059116      1.00800 ; qtot -1.236
   129   h1     1   UNK  H118  129     0.059116      1.00800 ; qtot -1.176
   130   h1     1   UNK  H123  130     0.059116      1.00800 ; qtot -1.117
   131   h1     1   UNK  H128  131     0.059116      1.00800 ; qtot -1.058
   132   h1     1   UNK  H133  132     0.059116      1.00800 ; qtot -0.999
   133   h1     1   UNK  H138  133     0.059116      1.00800 ; qtot -0.940
   134   h1     1   UNK  H143  134     0.059116      1.00800 ; qtot -0.881
   135   h1     1   UNK  H148  135     0.059116      1.00800 ; qtot -0.822
   136   h1     1   UNK  H153  136     0.058419      1.00800 ; qtot -0.763
   137   h1     1   UNK  H158  137     0.058419      1.00800 ; qtot -0.705
   138   h1     1   UNK  H163  138     0.051521      1.00800 ; qtot -0.653
   139   h1     1   UNK  H168  139     0.051521      1.00800 ; qtot -0.602
   140   h4     1   UNK  H173  140     0.083134      1.00800 ; qtot -0.519
   141   h1     1   UNK  H178  141     0.064189      1.00800 ; qtot -0.455
   142   h1     1   UNK  H183  142     0.064189      1.00800 ; qtot -0.390
   143   ha     1   UNK  H188  143     0.067841      1.00800 ; qtot -0.323
   144   ha     1   UNK  H191  144     0.067841      1.00800 ; qtot -0.255
   145   ha     1   UNK  H194  145     0.067841      1.00800 ; qtot -0.187
   146   c3     1   UNK   C32  146    -0.025930     12.01000 ; qtot -0.213
   147   oh     1   UNK   O10  147    -0.392572     16.00000 ; qtot -0.605
   148   c3     1   UNK   C37  148     0.059365     12.01000 ; qtot -0.546
   149    n     1   UNK    N5  149    -0.312618     14.01000 ; qtot -0.859
   150   c3     1   UNK   C42  150    -0.006015     12.01000 ; qtot -0.865
   151    o     1   UNK   O15  151    -0.277080     16.00000 ; qtot -1.142
   152   c3     1   UNK   C47  152    -0.028082     12.01000 ; qtot -1.170
   153   c3     1   UNK   C52  153    -0.025380     12.01000 ; qtot -1.195
   154   c3     1   UNK   C57  154    -0.044798     12.01000 ; qtot -1.240
   155   c3     1   UNK   C62  155    -0.048749     12.01000 ; qtot -1.289
   156   c3     1   UNK   C67  156    -0.046427     12.01000 ; qtot -1.335
   157   c3     1   UNK   C72  157    -0.019798     12.01000 ; qtot -1.355
   158   c3     1   UNK   C77  158    -0.026012     12.01000 ; qtot -1.381
   159   c3     1   UNK   C82  159    -0.005622     12.01000 ; qtot -1.387
   160   c2     1   UNK   C87  160    -0.063528     12.01000 ; qtot -1.450
   161   c2     1   UNK   C92  161    -0.084129     12.01000 ; qtot -1.534
   162   c3     1   UNK   C97  162    -0.030839     12.01000 ; qtot -1.565
   163   c3     1   UNK  C102  163    -0.042519     12.01000 ; qtot -1.608
   164   c3     1   UNK  C105  164    -0.037520     12.01000 ; qtot -1.645
   165   c3     1   UNK  C108  165     0.053654     12.01000 ; qtot -1.591
   166   c3     1   UNK  C111  166    -0.004977     12.01000 ; qtot -1.596
   167   c3     1   UNK  C114  167    -0.037859     12.01000 ; qtot -1.634
   168   c3     1   UNK  C117  168    -0.047063     12.01000 ; qtot -1.681
   169   c3     1   UNK  C120  169    -0.034786     12.01000 ; qtot -1.716
   170   c3     1   UNK  C123  170    -0.040467     12.01000 ; qtot -1.757
   171    c     1   UNK  C126  171     0.218532     12.01000 ; qtot -1.538
   172   c3     1   UNK  C128  172    -0.058513     12.01000 ; qtot -1.597
   173   c3     1   UNK  C130  173    -0.059057     12.01000 ; qtot -1.656
   174   c3     1   UNK  C132  174    -0.059888     12.01000 ; qtot -1.716
   175   c3     1   UNK  C134  175    -0.055324     12.01000 ; qtot -1.771
   176   c3     1   UNK  C136  176    -0.057146     12.01000 ; qtot -1.828
   177   c3     1   UNK  C138  177    -0.057146     12.01000 ; qtot -1.885
   178   c3     1   UNK  C140  178    -0.059888     12.01000 ; qtot -1.945
   179   c3     1   UNK   C33  179     0.034492     12.01000 ; qtot -1.911
   180   c3     1   UNK   C38  180     0.062204     12.01000 ; qtot -1.848
   181   os     1   UNK   O11  181    -0.377448     16.00000 ; qtot -2.226
   182   c3     1   UNK   C43  182     0.070069     12.01000 ; qtot -2.156
   183   c3     1   UNK   C48  183     0.070106     12.01000 ; qtot -2.086
   184   os     1   UNK   O19  184    -0.376679     16.00000 ; qtot -2.462
   185   c3     1   UNK   C53  185     0.070107     12.01000 ; qtot -2.392
   186   c3     1   UNK   C58  186     0.070107     12.01000 ; qtot -2.322
   187   os     1   UNK   O16  187    -0.376679     16.00000 ; qtot -2.699
   188   c3     1   UNK   C63  188     0.070107     12.01000 ; qtot -2.629
   189   c3     1   UNK   C68  189     0.070107     12.01000 ; qtot -2.559
   190   os     1   UNK   O21  190    -0.376679     16.00000 ; qtot -2.935
   191   c3     1   UNK   C73  191     0.070106     12.01000 ; qtot -2.865
   192   c3     1   UNK   C78  192     0.070071     12.01000 ; qtot -2.795
   193   os     1   UNK   O23  193    -0.377356     16.00000 ; qtot -3.172
   194   c3     1   UNK   C83  194     0.064452     12.01000 ; qtot -3.108
   195   c3     1   UNK   C88  195     0.059057     12.01000 ; qtot -3.049
   196   na     1   UNK    N7  196    -0.209983     14.01000 ; qtot -3.259
   197   nc     1   UNK    N9  197    -0.076013     14.01000 ; qtot -3.335
   198   nd     1   UNK   N11  198    -0.135081     14.01000 ; qtot -3.470
   199   cc     1   UNK   C93  199     0.042148     12.01000 ; qtot -3.428
   200   cd     1   UNK   C98  200     0.106522     12.01000 ; qtot -3.321
   201   hc     1   UNK   H49  201     0.036015      1.00800 ; qtot -3.285
   202   hc     1   UNK   H54  202     0.031753      1.00800 ; qtot -3.254
   203   hc     1   UNK   H59  203     0.031489      1.00800 ; qtot -3.222
   204   hc     1   UNK   H64  204     0.029341      1.00800 ; qtot -3.193
   205   hc     1   UNK   H69  205     0.029341      1.00800 ; qtot -3.163
   206   h1     1   UNK   H74  206     0.060623      1.00800 ; qtot -3.103
   207   hc     1   UNK   H79  207     0.027330      1.00800 ; qtot -3.075
   208   hc     1   UNK   H84  208     0.027330      1.00800 ; qtot -3.048
   209   hc     1   UNK   H89  209     0.027001      1.00800 ; qtot -3.021
   210   hc     1   UNK   H94  210     0.027001      1.00800 ; qtot -2.994
   211   hc     1   UNK   H99  211     0.027266      1.00800 ; qtot -2.967
   212   hc     1   UNK  H104  212     0.027266      1.00800 ; qtot -2.940
   213   ha     1   UNK  H109  213     0.057581      1.00800 ; qtot -2.882
   214   hc     1   UNK  H114  214     0.031303      1.00800 ; qtot -2.851
   215   hc     1   UNK  H119  215     0.031303      1.00800 ; qtot -2.819
   216   hc     1   UNK  H124  216     0.027599      1.00800 ; qtot -2.792
   217   hc     1   UNK  H129  217     0.027599      1.00800 ; qtot -2.764
   218   hc     1   UNK  H134  218     0.027791      1.00800 ; qtot -2.736
   219   hc     1   UNK  H139  219     0.027791      1.00800 ; qtot -2.709
   220   hc     1   UNK  H144  220     0.027779      1.00800 ; qtot -2.681
   221   hc     1   UNK  H149  221     0.027779      1.00800 ; qtot -2.653
   222   hc     1   UNK  H154  222     0.027238      1.00800 ; qtot -2.626
   223   hc     1   UNK  H159  223     0.027238      1.00800 ; qtot -2.599
   224   hc     1   UNK  H164  224     0.027851      1.00800 ; qtot -2.571
   225   hc     1   UNK  H169  225     0.027851      1.00800 ; qtot -2.543
   226   hc     1   UNK  H174  226     0.023645      1.00800 ; qtot -2.519
   227   hc     1   UNK  H179  227     0.023645      1.00800 ; qtot -2.496
   228   hc     1   UNK  H184  228     0.023645      1.00800 ; qtot -2.472
   229   hc     1   UNK  H189  229     0.023624      1.00800 ; qtot -2.448
   230   hc     1   UNK  H192  230     0.023624      1.00800 ; qtot -2.425
   231   hc     1   UNK  H195  231     0.023624      1.00800 ; qtot -2.401
   232   ho     1   UNK  H197  232     0.210479      1.00800 ; qtot -2.191
   233   hc     1   UNK  H199  233     0.023593      1.00800 ; qtot -2.167
   234   hc     1   UNK  H201  234     0.023593      1.00800 ; qtot -2.143
   235   hc     1   UNK  H203  235     0.023593      1.00800 ; qtot -2.120
   236   hc     1   UNK  H205  236     0.023952      1.00800 ; qtot -2.096
   237   hc     1   UNK  H207  237     0.023952      1.00800 ; qtot -2.072
   238   hc     1   UNK  H209  238     0.023952      1.00800 ; qtot -2.048
   239   hc     1   UNK  H211  239     0.023699      1.00800 ; qtot -2.024
   240   hc     1   UNK  H213  240     0.023699      1.00800 ; qtot -2.001
   241   hc     1   UNK  H215  241     0.023699      1.00800 ; qtot -1.977
   242   hc     1   UNK  H217  242     0.023699      1.00800 ; qtot -1.953
   243   hc     1   UNK  H219  243     0.023699      1.00800 ; qtot -1.929
   244   hc     1   UNK  H221  244     0.023699      1.00800 ; qtot -1.906
   245   hc     1   UNK  H223  245     0.023593      1.00800 ; qtot -1.882
   246   hc     1   UNK  H225  246     0.023593      1.00800 ; qtot -1.859
   247   hc     1   UNK  H227  247     0.023593      1.00800 ; qtot -1.835
   248   hn     1   UNK   H50  248     0.149444      1.00800 ; qtot -1.686
   249   h1     1   UNK   H55  249     0.049091      1.00800 ; qtot -1.636
   250   h1     1   UNK   H60  250     0.049091      1.00800 ; qtot -1.587
   251   h1     1   UNK   H65  251     0.058329      1.00800 ; qtot -1.529
   252   h1     1   UNK   H70  252     0.058329      1.00800 ; qtot -1.471
   253   h1     1   UNK   H75  253     0.059116      1.00800 ; qtot -1.412
   254   h1     1   UNK   H80  254     0.059116      1.00800 ; qtot -1.352
   255   h1     1   UNK   H85  255     0.059116      1.00800 ; qtot -1.293
   256   h1     1   UNK   H90  256     0.059116      1.00800 ; qtot -1.234
   257   h1     1   UNK   H95  257     0.059116      1.00800 ; qtot -1.175
   258   h1     1   UNK  H100  258     0.059116      1.00800 ; qtot -1.116
   259   h1     1   UNK  H105  259     0.059116      1.00800 ; qtot -1.057
   260   h1     1   UNK  H110  260     0.059116      1.00800 ; qtot -0.998
   261   h1     1   UNK  H115  261     0.059116      1.00800 ; qtot -0.939
   262   h1     1   UNK  H120  262     0.059116      1.00800 ; qtot -0.880
   263   h1     1   UNK  H125  263     0.059116      1.00800 ; qtot -0.820
   264   h1     1   UNK  H130  264     0.059116      1.00800 ; qtot -0.761
   265   h1     1   UNK  H135  265     0.059116      1.00800 ; qtot -0.702
   266   h1     1   UNK  H140  266     0.059116      1.00800 ; qtot -0.643
   267   h1     1   UNK  H145  267     0.059116      1.00800 ; qtot -0.584
   268   h1     1   UNK  H150  268     0.059116      1.00800 ; qtot -0.525
   269   h1     1   UNK  H155  269     0.058419      1.00800 ; qtot -0.466
   270   h1     1   UNK  H160  270     0.058419      1.00800 ; qtot -0.408
   271   h1     1   UNK  H165  271     0.051521      1.00800 ; qtot -0.356
   272   h1     1   UNK  H170  272     0.051521      1.00800 ; qtot -0.305
   273   h4     1   UNK  H175  273     0.083134      1.00800 ; qtot -0.222
   274   h1     1   UNK  H180  274     0.064189      1.00800 ; qtot -0.158
   275   h1     1   UNK  H185  275     0.064189      1.00800 ; qtot -0.093
   276   c3     1   UNK   C34  276    -0.025930     12.01000 ; qtot -0.119
   277   oh     1   UNK   O12  277    -0.392572     16.00000 ; qtot -0.512
   278   c3     1   UNK   C39  278     0.059365     12.01000 ; qtot -0.453
   279    n     1   UNK    N6  279    -0.312618     14.01000 ; qtot -0.765
   280   c3     1   UNK   C44  280    -0.006015     12.01000 ; qtot -0.771
   281    o     1   UNK   O17  281    -0.277080     16.00000 ; qtot -1.048
   282   c3     1   UNK   C49  282    -0.028082     12.01000 ; qtot -1.076
   283   c3     1   UNK   C54  283    -0.025380     12.01000 ; qtot -1.102
   284   c3     1   UNK   C59  284    -0.044798     12.01000 ; qtot -1.147
   285   c3     1   UNK   C64  285    -0.048749     12.01000 ; qtot -1.195
   286   c3     1   UNK   C69  286    -0.046427     12.01000 ; qtot -1.242
   287   c3     1   UNK   C74  287    -0.019798     12.01000 ; qtot -1.262
   288   c3     1   UNK   C79  288    -0.026012     12.01000 ; qtot -1.288
   289   c3     1   UNK   C84  289    -0.005622     12.01000 ; qtot -1.293
   290   c2     1   UNK   C89  290    -0.063528     12.01000 ; qtot -1.357
   291   c2     1   UNK   C94  291    -0.084129     12.01000 ; qtot -1.441
   292   c3     1   UNK   C99  292    -0.030839     12.01000 ; qtot -1.472
   293   c3     1   UNK  C103  293    -0.042519     12.01000 ; qtot -1.514
   294   c3     1   UNK  C106  294    -0.037520     12.01000 ; qtot -1.552
   295   c3     1   UNK  C109  295     0.053654     12.01000 ; qtot -1.498
   296   c3     1   UNK  C112  296    -0.004977     12.01000 ; qtot -1.503
   297   c3     1   UNK  C115  297    -0.037859     12.01000 ; qtot -1.541
   298   c3     1   UNK  C118  298    -0.047063     12.01000 ; qtot -1.588
   299   c3     1   UNK  C121  299    -0.034786     12.01000 ; qtot -1.623
   300   c3     1   UNK  C124  300    -0.040467     12.01000 ; qtot -1.663
   301    c     1   UNK  C127  301     0.218532     12.01000 ; qtot -1.445
   302   c3     1   UNK  C129  302    -0.058513     12.01000 ; qtot -1.503
   303   c3     1   UNK  C131  303    -0.059057     12.01000 ; qtot -1.562
   304   c3     1   UNK  C133  304    -0.059888     12.01000 ; qtot -1.622
   305   c3     1   UNK  C135  305    -0.055324     12.01000 ; qtot -1.677
   306   c3     1   UNK  C137  306    -0.057146     12.01000 ; qtot -1.735
   307   c3     1   UNK  C139  307    -0.057146     12.01000 ; qtot -1.792
   308   c3     1   UNK  C141  308    -0.059888     12.01000 ; qtot -1.852
   309   c3     1   UNK   C35  309     0.034492     12.01000 ; qtot -1.817
   310   c3     1   UNK   C40  310     0.062204     12.01000 ; qtot -1.755
   311   os     1   UNK   O13  311    -0.377448     16.00000 ; qtot -2.132
   312   c3     1   UNK   C45  312     0.070069     12.01000 ; qtot -2.062
   313   c3     1   UNK   C50  313     0.070106     12.01000 ; qtot -1.992
   314   os     1   UNK   O20  314    -0.376679     16.00000 ; qtot -2.369
   315   c3     1   UNK   C55  315     0.070107     12.01000 ; qtot -2.299
   316   c3     1   UNK   C60  316     0.070107     12.01000 ; qtot -2.229
   317   os     1   UNK   O18  317    -0.376679     16.00000 ; qtot -2.605
   318   c3     1   UNK   C65  318     0.070107     12.01000 ; qtot -2.535
   319   c3     1   UNK   C70  319     0.070107     12.01000 ; qtot -2.465
   320   os     1   UNK   O22  320    -0.376679     16.00000 ; qtot -2.842
   321   c3     1   UNK   C75  321     0.070106     12.01000 ; qtot -2.772
   322   c3     1   UNK   C80  322     0.070071     12.01000 ; qtot -2.702
   323   os     1   UNK   O24  323    -0.377356     16.00000 ; qtot -3.079
   324   c3     1   UNK   C85  324     0.064452     12.01000 ; qtot -3.015
   325   c3     1   UNK   C90  325     0.059057     12.01000 ; qtot -2.955
   326   na     1   UNK    N8  326    -0.209983     14.01000 ; qtot -3.165
   327   nc     1   UNK   N10  327    -0.076013     14.01000 ; qtot -3.241
   328   nd     1   UNK   N12  328    -0.135081     14.01000 ; qtot -3.377
   329   cd     1   UNK   C95  329     0.106522     12.01000 ; qtot -3.270
   330   cc     1   UNK  C100  330     0.042148     12.01000 ; qtot -3.228
   331   hc     1   UNK   H51  331     0.036015      1.00800 ; qtot -3.192
   332   hc     1   UNK   H56  332     0.031753      1.00800 ; qtot -3.160
   333   hc     1   UNK   H61  333     0.031489      1.00800 ; qtot -3.129
   334   hc     1   UNK   H66  334     0.029341      1.00800 ; qtot -3.099
   335   hc     1   UNK   H71  335     0.029341      1.00800 ; qtot -3.070
   336   h1     1   UNK   H76  336     0.060623      1.00800 ; qtot -3.009
   337   hc     1   UNK   H81  337     0.027330      1.00800 ; qtot -2.982
   338   hc     1   UNK   H86  338     0.027330      1.00800 ; qtot -2.955
   339   hc     1   UNK   H91  339     0.027001      1.00800 ; qtot -2.928
   340   hc     1   UNK   H96  340     0.027001      1.00800 ; qtot -2.901
   341   hc     1   UNK  H101  341     0.027266      1.00800 ; qtot -2.873
   342   hc     1   UNK  H106  342     0.027266      1.00800 ; qtot -2.846
   343   ha     1   UNK  H111  343     0.057581      1.00800 ; qtot -2.789
   344   hc     1   UNK  H116  344     0.031303      1.00800 ; qtot -2.757
   345   hc     1   UNK  H121  345     0.031303      1.00800 ; qtot -2.726
   346   hc     1   UNK  H126  346     0.027599      1.00800 ; qtot -2.698
   347   hc     1   UNK  H131  347     0.027599      1.00800 ; qtot -2.671
   348   hc     1   UNK  H136  348     0.027791      1.00800 ; qtot -2.643
   349   hc     1   UNK  H141  349     0.027791      1.00800 ; qtot -2.615
   350   hc     1   UNK  H146  350     0.027779      1.00800 ; qtot -2.587
   351   hc     1   UNK  H151  351     0.027779      1.00800 ; qtot -2.560
   352   hc     1   UNK  H156  352     0.027238      1.00800 ; qtot -2.532
   353   hc     1   UNK  H161  353     0.027238      1.00800 ; qtot -2.505
   354   hc     1   UNK  H166  354     0.027851      1.00800 ; qtot -2.477
   355   hc     1   UNK  H171  355     0.027851      1.00800 ; qtot -2.449
   356   hc     1   UNK  H176  356     0.023645      1.00800 ; qtot -2.426
   357   hc     1   UNK  H181  357     0.023645      1.00800 ; qtot -2.402
   358   hc     1   UNK  H186  358     0.023645      1.00800 ; qtot -2.378
   359   hc     1   UNK  H190  359     0.023624      1.00800 ; qtot -2.355
   360   hc     1   UNK  H193  360     0.023624      1.00800 ; qtot -2.331
   361   hc     1   UNK  H196  361     0.023624      1.00800 ; qtot -2.308
   362   ho     1   UNK  H198  362     0.210479      1.00800 ; qtot -2.097
   363   hc     1   UNK  H200  363     0.023593      1.00800 ; qtot -2.074
   364   hc     1   UNK  H202  364     0.023593      1.00800 ; qtot -2.050
   365   hc     1   UNK  H204  365     0.023593      1.00800 ; qtot -2.026
   366   hc     1   UNK  H206  366     0.023952      1.00800 ; qtot -2.002
   367   hc     1   UNK  H208  367     0.023952      1.00800 ; qtot -1.978
   368   hc     1   UNK  H210  368     0.023952      1.00800 ; qtot -1.955
   369   hc     1   UNK  H212  369     0.023699      1.00800 ; qtot -1.931
   370   hc     1   UNK  H214  370     0.023699      1.00800 ; qtot -1.907
   371   hc     1   UNK  H216  371     0.023699      1.00800 ; qtot -1.883
   372   hc     1   UNK  H218  372     0.023699      1.00800 ; qtot -1.860
   373   hc     1   UNK  H220  373     0.023699      1.00800 ; qtot -1.836
   374   hc     1   UNK  H222  374     0.023699      1.00800 ; qtot -1.812
   375   hc     1   UNK  H224  375     0.023593      1.00800 ; qtot -1.789
   376   hc     1   UNK  H226  376     0.023593      1.00800 ; qtot -1.765
   377   hc     1   UNK  H228  377     0.023593      1.00800 ; qtot -1.742
   378   hn     1   UNK   H52  378     0.149444      1.00800 ; qtot -1.592
   379   h1     1   UNK   H57  379     0.049091      1.00800 ; qtot -1.543
   380   h1     1   UNK   H62  380     0.049091      1.00800 ; qtot -1.494
   381   h1     1   UNK   H67  381     0.058329      1.00800 ; qtot -1.436
   382   h1     1   UNK   H72  382     0.058329      1.00800 ; qtot -1.377
   383   h1     1   UNK   H77  383     0.059116      1.00800 ; qtot -1.318
   384   h1     1   UNK   H82  384     0.059116      1.00800 ; qtot -1.259
   385   h1     1   UNK   H87  385     0.059116      1.00800 ; qtot -1.200
   386   h1     1   UNK   H92  386     0.059116      1.00800 ; qtot -1.141
   387   h1     1   UNK   H97  387     0.059116      1.00800 ; qtot -1.082
   388   h1     1   UNK  H102  388     0.059116      1.00800 ; qtot -1.023
   389   h1     1   UNK  H107  389     0.059116      1.00800 ; qtot -0.963
   390   h1     1   UNK  H112  390     0.059116      1.00800 ; qtot -0.904
   391   h1     1   UNK  H117  391     0.059116      1.00800 ; qtot -0.845
   392   h1     1   UNK  H122  392     0.059116      1.00800 ; qtot -0.786
   393   h1     1   UNK  H127  393     0.059116      1.00800 ; qtot -0.727
   394   h1     1   UNK  H132  394     0.059116      1.00800 ; qtot -0.668
   395   h1     1   UNK  H137  395     0.059116      1.00800 ; qtot -0.609
   396   h1     1   UNK  H142  396     0.059116      1.00800 ; qtot -0.550
   397   h1     1   UNK  H147  397     0.059116      1.00800 ; qtot -0.491
   398   h1     1   UNK  H152  398     0.059116      1.00800 ; qtot -0.431
   399   h1     1   UNK  H157  399     0.058419      1.00800 ; qtot -0.373
   400   h1     1   UNK  H162  400     0.058419      1.00800 ; qtot -0.315
   401   h1     1   UNK  H167  401     0.051521      1.00800 ; qtot -0.263
   402   h1     1   UNK  H172  402     0.051521      1.00800 ; qtot -0.212
   403   h4     1   UNK  H177  403     0.083134      1.00800 ; qtot -0.128
   404   h1     1   UNK  H182  404     0.064189      1.00800 ; qtot -0.064
   405   h1     1   UNK  H187  405     0.064189      1.00800 ; qtot 0.000

[ bonds ]
;   ai     aj funct   r             k
     1      3   1    1.5375e-01    2.5179e+05 ;     C1 - C2    
     1      9   1    1.5375e-01    2.5179e+05 ;     C1 - C6    
     1     71   1    1.0969e-01    2.7665e+05 ;     C1 - H4    
     1     72   1    1.0969e-01    2.7665e+05 ;     C1 - H5    
     2      3   1    1.4233e-01    2.6501e+05 ;     O1 - C2    
     2     99   1    9.7300e-02    3.1079e+05 ;     O1 - H32   
     3      5   1    1.5375e-01    2.5179e+05 ;     C2 - C3    
     3     73   1    1.0969e-01    2.7665e+05 ;     C2 - H6    
     4     26   1    1.3789e-01    3.5782e+05 ;     N1 - C23   
     4     34   1    1.4619e-01    2.7506e+05 ;     N1 - C31   
     4    115   1    1.0129e-01    3.3740e+05 ;     N1 - H48   
     5      7   1    1.5375e-01    2.5179e+05 ;     C3 - C4    
     5     31   1    1.5375e-01    2.5179e+05 ;     C3 - C28   
     5     32   1    1.5375e-01    2.5179e+05 ;     C3 - C29   
     6     26   1    1.2183e-01    5.3363e+05 ;     O3 - C23   
     7      8   1    1.5375e-01    2.5179e+05 ;     C4 - C5    
     7     10   1    1.5375e-01    2.5179e+05 ;     C4 - C7    
     7     70   1    1.0969e-01    2.7665e+05 ;     C4 - H3    
     8      9   1    1.5375e-01    2.5179e+05 ;     C5 - C6    
     8     13   1    1.5375e-01    2.5179e+05 ;     C5 - C10   
     8     28   1    1.5375e-01    2.5179e+05 ;     C5 - C25   
     9     74   1    1.0969e-01    2.7665e+05 ;     C6 - H7    
     9     75   1    1.0969e-01    2.7665e+05 ;     C6 - H8    
    10     11   1    1.5375e-01    2.5179e+05 ;     C7 - C8    
    10     76   1    1.0969e-01    2.7665e+05 ;     C7 - H9    
    10     77   1    1.0969e-01    2.7665e+05 ;     C7 - H10   
    11     12   1    1.5375e-01    2.5179e+05 ;     C8 - C9    
    11     78   1    1.0969e-01    2.7665e+05 ;     C8 - H11   
    11     79   1    1.0969e-01    2.7665e+05 ;     C8 - H12   
    12     13   1    1.5375e-01    2.5179e+05 ;     C9 - C10   
    12     14   1    1.5375e-01    2.5179e+05 ;     C9 - C11   
    12     27   1    1.5375e-01    2.5179e+05 ;     C9 - C24   
    13     17   1    1.5375e-01    2.5179e+05 ;    C10 - C14   
    13     69   1    1.0969e-01    2.7665e+05 ;    C10 - H2    
    14     15   1    1.5095e-01    2.7347e+05 ;    C11 - C12   
    14     18   1    1.5375e-01    2.5179e+05 ;    C11 - C15   
    14     30   1    1.5375e-01    2.5179e+05 ;    C11 - C27   
    15     16   1    1.3343e-01    4.7647e+05 ;    C12 - C13   
    15     21   1    1.5095e-01    2.7347e+05 ;    C12 - C18   
    16     17   1    1.5095e-01    2.7347e+05 ;    C13 - C14   
    16     80   1    1.0879e-01    2.8711e+05 ;    C13 - H13   
    17     81   1    1.0969e-01    2.7665e+05 ;    C14 - H14   
    17     82   1    1.0969e-01    2.7665e+05 ;    C14 - H15   
    18     19   1    1.5375e-01    2.5179e+05 ;    C15 - C16   
    18     83   1    1.0969e-01    2.7665e+05 ;    C15 - H16   
    18     84   1    1.0969e-01    2.7665e+05 ;    C15 - H17   
    19     20   1    1.5375e-01    2.5179e+05 ;    C16 - C17   
    19     85   1    1.0969e-01    2.7665e+05 ;    C16 - H18   
    19     86   1    1.0969e-01    2.7665e+05 ;    C16 - H19   
    20     21   1    1.5375e-01    2.5179e+05 ;    C17 - C18   
    20     22   1    1.5375e-01    2.5179e+05 ;    C17 - C19   
    20     26   1    1.5241e-01    2.6192e+05 ;    C17 - C23   
    21     25   1    1.5375e-01    2.5179e+05 ;    C18 - C22   
    21     68   1    1.0969e-01    2.7665e+05 ;    C18 - H1    
    22     23   1    1.5375e-01    2.5179e+05 ;    C19 - C20   
    22     87   1    1.0969e-01    2.7665e+05 ;    C19 - H20   
    22     88   1    1.0969e-01    2.7665e+05 ;    C19 - H21   
    23     24   1    1.5375e-01    2.5179e+05 ;    C20 - C21   
    23     89   1    1.0969e-01    2.7665e+05 ;    C20 - H22   
    23     90   1    1.0969e-01    2.7665e+05 ;    C20 - H23   
    24     25   1    1.5375e-01    2.5179e+05 ;    C21 - C22   
    24     29   1    1.5375e-01    2.5179e+05 ;    C21 - C26   
    24     33   1    1.5375e-01    2.5179e+05 ;    C21 - C30   
    25     91   1    1.0969e-01    2.7665e+05 ;    C22 - H24   
    25     92   1    1.0969e-01    2.7665e+05 ;    C22 - H25   
    27     93   1    1.0969e-01    2.7665e+05 ;    C24 - H26   
    27     94   1    1.0969e-01    2.7665e+05 ;    C24 - H27   
    27     95   1    1.0969e-01    2.7665e+05 ;    C24 - H28   
    28     96   1    1.0969e-01    2.7665e+05 ;    C25 - H29   
    28     97   1    1.0969e-01    2.7665e+05 ;    C25 - H30   
    28     98   1    1.0969e-01    2.7665e+05 ;    C25 - H31   
    29    100   1    1.0969e-01    2.7665e+05 ;    C26 - H33   
    29    101   1    1.0969e-01    2.7665e+05 ;    C26 - H34   
    29    102   1    1.0969e-01    2.7665e+05 ;    C26 - H35   
    30    103   1    1.0969e-01    2.7665e+05 ;    C27 - H36   
    30    104   1    1.0969e-01    2.7665e+05 ;    C27 - H37   
    30    105   1    1.0969e-01    2.7665e+05 ;    C27 - H38   
    31    106   1    1.0969e-01    2.7665e+05 ;    C28 - H39   
    31    107   1    1.0969e-01    2.7665e+05 ;    C28 - H40   
    31    108   1    1.0969e-01    2.7665e+05 ;    C28 - H41   
    32    109   1    1.0969e-01    2.7665e+05 ;    C29 - H42   
    32    110   1    1.0969e-01    2.7665e+05 ;    C29 - H43   
    32    111   1    1.0969e-01    2.7665e+05 ;    C29 - H44   
    33    112   1    1.0969e-01    2.7665e+05 ;    C30 - H45   
    33    113   1    1.0969e-01    2.7665e+05 ;    C30 - H46   
    33    114   1    1.0969e-01    2.7665e+05 ;    C30 - H47   
    34     35   1    1.5375e-01    2.5179e+05 ;    C31 - C36   
    34    116   1    1.0969e-01    2.7665e+05 ;    C31 - H53   
    34    117   1    1.0969e-01    2.7665e+05 ;    C31 - H58   
    35     36   1    1.4316e-01    2.5824e+05 ;    C36 - O9    
    35    118   1    1.0969e-01    2.7665e+05 ;    C36 - H63   
    35    119   1    1.0969e-01    2.7665e+05 ;    C36 - H68   
    36     37   1    1.4316e-01    2.5824e+05 ;     O9 - C41   
    37     38   1    1.5375e-01    2.5179e+05 ;    C41 - C46   
    37    120   1    1.0969e-01    2.7665e+05 ;    C41 - H73   
    37    121   1    1.0969e-01    2.7665e+05 ;    C41 - H78   
    38     39   1    1.4316e-01    2.5824e+05 ;    C46 - O2    
    38    122   1    1.0969e-01    2.7665e+05 ;    C46 - H83   
    38    123   1    1.0969e-01    2.7665e+05 ;    C46 - H88   
    39     40   1    1.4316e-01    2.5824e+05 ;     O2 - C51   
    40     41   1    1.5375e-01    2.5179e+05 ;    C51 - C56   
    40    124   1    1.0969e-01    2.7665e+05 ;    C51 - H93   
    40    125   1    1.0969e-01    2.7665e+05 ;    C51 - H98   
    41     42   1    1.4316e-01    2.5824e+05 ;    C56 - O14   
    41    126   1    1.0969e-01    2.7665e+05 ;    C56 - H103  
    41    127   1    1.0969e-01    2.7665e+05 ;    C56 - H108  
    42     43   1    1.4316e-01    2.5824e+05 ;    O14 - C61   
    43     44   1    1.5375e-01    2.5179e+05 ;    C61 - C66   
    43    128   1    1.0969e-01    2.7665e+05 ;    C61 - H113  
    43    129   1    1.0969e-01    2.7665e+05 ;    C61 - H118  
    44     45   1    1.4316e-01    2.5824e+05 ;    C66 - O4    
    44    130   1    1.0969e-01    2.7665e+05 ;    C66 - H123  
    44    131   1    1.0969e-01    2.7665e+05 ;    C66 - H128  
    45     46   1    1.4316e-01    2.5824e+05 ;     O4 - C71   
    46     47   1    1.5375e-01    2.5179e+05 ;    C71 - C76   
    46    132   1    1.0969e-01    2.7665e+05 ;    C71 - H133  
    46    133   1    1.0969e-01    2.7665e+05 ;    C71 - H138  
    47     48   1    1.4316e-01    2.5824e+05 ;    C76 - O5    
    47    134   1    1.0969e-01    2.7665e+05 ;    C76 - H143  
    47    135   1    1.0969e-01    2.7665e+05 ;    C76 - H148  
    48     49   1    1.4316e-01    2.5824e+05 ;     O5 - C81   
    49     50   1    1.5375e-01    2.5179e+05 ;    C81 - C86   
    49    136   1    1.0969e-01    2.7665e+05 ;    C81 - H153  
    49    137   1    1.0969e-01    2.7665e+05 ;    C81 - H158  
    50     51   1    1.4629e-01    2.7422e+05 ;    C86 - N2    
    50    138   1    1.0969e-01    2.7665e+05 ;    C86 - H163  
    50    139   1    1.0969e-01    2.7665e+05 ;    C86 - H168  
    51     52   1    1.3558e-01    4.3965e+05 ;     N2 - N3    
    51     54   1    1.3802e-01    3.5631e+05 ;     N2 - C91   
    52     53   1    1.2988e-01    5.3346e+05 ;     N3 - N4    
    53     55   1    1.3694e-01    3.6911e+05 ;     N4 - C96   
    54     55   1    1.3729e-01    4.1915e+05 ;    C91 - C96   
    54    140   1    1.0817e-01    2.9455e+05 ;    C91 - H173  
    55     56   1    1.5015e-01    2.8016e+05 ;    C96 - C101  
    56     57   1    1.4316e-01    2.5824e+05 ;   C101 - O6    
    56    141   1    1.0969e-01    2.7665e+05 ;   C101 - H178  
    56    142   1    1.0969e-01    2.7665e+05 ;   C101 - H183  
    57     58   1    1.3696e-01    3.1514e+05 ;     O6 - C104  
    58     59   1    1.3984e-01    3.8585e+05 ;   C104 - C107  
    58     60   1    1.3984e-01    3.8585e+05 ;   C104 - C110  
    59     63   1    1.3984e-01    3.8585e+05 ;   C107 - C119  
    59    143   1    1.0860e-01    2.8937e+05 ;   C107 - H188  
    60     61   1    1.3984e-01    3.8585e+05 ;   C110 - C113  
    60    144   1    1.0860e-01    2.8937e+05 ;   C110 - H191  
    61     62   1    1.3984e-01    3.8585e+05 ;   C113 - C116  
    61     64   1    1.3696e-01    3.1514e+05 ;   C113 - O7    
    62     63   1    1.3984e-01    3.8585e+05 ;   C116 - C119  
    62    145   1    1.0860e-01    2.8937e+05 ;   C116 - H194  
    63     65   1    1.3696e-01    3.1514e+05 ;   C119 - O8    
    64     67   1    1.4316e-01    2.5824e+05 ;     O7 - C125  
    65     66   1    1.4316e-01    2.5824e+05 ;     O8 - C122  
    66    200   1    1.5015e-01    2.8016e+05 ;   C122 - C98   
    66    274   1    1.0969e-01    2.7665e+05 ;   C122 - H180  
    66    275   1    1.0969e-01    2.7665e+05 ;   C122 - H185  
    67    329   1    1.5015e-01    2.8016e+05 ;   C125 - C95   
    67    404   1    1.0969e-01    2.7665e+05 ;   C125 - H182  
    67    405   1    1.0969e-01    2.7665e+05 ;   C125 - H187  
   146    148   1    1.5375e-01    2.5179e+05 ;    C32 - C37   
   146    154   1    1.5375e-01    2.5179e+05 ;    C32 - C57   
   146    204   1    1.0969e-01    2.7665e+05 ;    C32 - H64   
   146    205   1    1.0969e-01    2.7665e+05 ;    C32 - H69   
   147    148   1    1.4233e-01    2.6501e+05 ;    O10 - C37   
   147    232   1    9.7300e-02    3.1079e+05 ;    O10 - H197  
   148    150   1    1.5375e-01    2.5179e+05 ;    C37 - C42   
   148    206   1    1.0969e-01    2.7665e+05 ;    C37 - H74   
   149    171   1    1.3789e-01    3.5782e+05 ;     N5 - C126  
   149    179   1    1.4619e-01    2.7506e+05 ;     N5 - C33   
   149    248   1    1.0129e-01    3.3740e+05 ;     N5 - H50   
   150    152   1    1.5375e-01    2.5179e+05 ;    C42 - C47   
   150    176   1    1.5375e-01    2.5179e+05 ;    C42 - C136  
   150    177   1    1.5375e-01    2.5179e+05 ;    C42 - C138  
   151    171   1    1.2183e-01    5.3363e+05 ;    O15 - C126  
   152    153   1    1.5375e-01    2.5179e+05 ;    C47 - C52   
   152    155   1    1.5375e-01    2.5179e+05 ;    C47 - C62   
   152    203   1    1.0969e-01    2.7665e+05 ;    C47 - H59   
   153    154   1    1.5375e-01    2.5179e+05 ;    C52 - C57   
   153    158   1    1.5375e-01    2.5179e+05 ;    C52 - C77   
   153    173   1    1.5375e-01    2.5179e+05 ;    C52 - C130  
   154    207   1    1.0969e-01    2.7665e+05 ;    C57 - H79   
   154    208   1    1.0969e-01    2.7665e+05 ;    C57 - H84   
   155    156   1    1.5375e-01    2.5179e+05 ;    C62 - C67   
   155    209   1    1.0969e-01    2.7665e+05 ;    C62 - H89   
   155    210   1    1.0969e-01    2.7665e+05 ;    C62 - H94   
   156    157   1    1.5375e-01    2.5179e+05 ;    C67 - C72   
   156    211   1    1.0969e-01    2.7665e+05 ;    C67 - H99   
   156    212   1    1.0969e-01    2.7665e+05 ;    C67 - H104  
   157    158   1    1.5375e-01    2.5179e+05 ;    C72 - C77   
   157    159   1    1.5375e-01    2.5179e+05 ;    C72 - C82   
   157    172   1    1.5375e-01    2.5179e+05 ;    C72 - C128  
   158    162   1    1.5375e-01    2.5179e+05 ;    C77 - C97   
   158    202   1    1.0969e-01    2.7665e+05 ;    C77 - H54   
   159    160   1    1.5095e-01    2.7347e+05 ;    C82 - C87   
   159    163   1    1.5375e-01    2.5179e+05 ;    C82 - C102  
   159    175   1    1.5375e-01    2.5179e+05 ;    C82 - C134  
   160    161   1    1.3343e-01    4.7647e+05 ;    C87 - C92   
   160    166   1    1.5095e-01    2.7347e+05 ;    C87 - C111  
   161    162   1    1.5095e-01    2.7347e+05 ;    C92 - C97   
   161    213   1    1.0879e-01    2.8711e+05 ;    C92 - H109  
   162    214   1    1.0969e-01    2.7665e+05 ;    C97 - H114  
   162    215   1    1.0969e-01    2.7665e+05 ;    C97 - H119  
   163    164   1    1.5375e-01    2.5179e+05 ;   C102 - C105  
   163    216   1    1.0969e-01    2.7665e+05 ;   C102 - H124  
   163    217   1    1.0969e-01    2.7665e+05 ;   C102 - H129  
   164    165   1    1.5375e-01    2.5179e+05 ;   C105 - C108  
   164    218   1    1.0969e-01    2.7665e+05 ;   C105 - H134  
   164    219   1    1.0969e-01    2.7665e+05 ;   C105 - H139  
   165    166   1    1.5375e-01    2.5179e+05 ;   C108 - C111  
   165    167   1    1.5375e-01    2.5179e+05 ;   C108 - C114  
   165    171   1    1.5241e-01    2.6192e+05 ;   C108 - C126  
   166    170   1    1.5375e-01    2.5179e+05 ;   C111 - C123  
   166    201   1    1.0969e-01    2.7665e+05 ;   C111 - H49   
   167    168   1    1.5375e-01    2.5179e+05 ;   C114 - C117  
   167    220   1    1.0969e-01    2.7665e+05 ;   C114 - H144  
   167    221   1    1.0969e-01    2.7665e+05 ;   C114 - H149  
   168    169   1    1.5375e-01    2.5179e+05 ;   C117 - C120  
   168    222   1    1.0969e-01    2.7665e+05 ;   C117 - H154  
   168    223   1    1.0969e-01    2.7665e+05 ;   C117 - H159  
   169    170   1    1.5375e-01    2.5179e+05 ;   C120 - C123  
   169    174   1    1.5375e-01    2.5179e+05 ;   C120 - C132  
   169    178   1    1.5375e-01    2.5179e+05 ;   C120 - C140  
   170    224   1    1.0969e-01    2.7665e+05 ;   C123 - H164  
   170    225   1    1.0969e-01    2.7665e+05 ;   C123 - H169  
   172    226   1    1.0969e-01    2.7665e+05 ;   C128 - H174  
   172    227   1    1.0969e-01    2.7665e+05 ;   C128 - H179  
   172    228   1    1.0969e-01    2.7665e+05 ;   C128 - H184  
   173    229   1    1.0969e-01    2.7665e+05 ;   C130 - H189  
   173    230   1    1.0969e-01    2.7665e+05 ;   C130 - H192  
   173    231   1    1.0969e-01    2.7665e+05 ;   C130 - H195  
   174    233   1    1.0969e-01    2.7665e+05 ;   C132 - H199  
   174    234   1    1.0969e-01    2.7665e+05 ;   C132 - H201  
   174    235   1    1.0969e-01    2.7665e+05 ;   C132 - H203  
   175    236   1    1.0969e-01    2.7665e+05 ;   C134 - H205  
   175    237   1    1.0969e-01    2.7665e+05 ;   C134 - H207  
   175    238   1    1.0969e-01    2.7665e+05 ;   C134 - H209  
   176    239   1    1.0969e-01    2.7665e+05 ;   C136 - H211  
   176    240   1    1.0969e-01    2.7665e+05 ;   C136 - H213  
   176    241   1    1.0969e-01    2.7665e+05 ;   C136 - H215  
   177    242   1    1.0969e-01    2.7665e+05 ;   C138 - H217  
   177    243   1    1.0969e-01    2.7665e+05 ;   C138 - H219  
   177    244   1    1.0969e-01    2.7665e+05 ;   C138 - H221  
   178    245   1    1.0969e-01    2.7665e+05 ;   C140 - H223  
   178    246   1    1.0969e-01    2.7665e+05 ;   C140 - H225  
   178    247   1    1.0969e-01    2.7665e+05 ;   C140 - H227  
   179    180   1    1.5375e-01    2.5179e+05 ;    C33 - C38   
   179    249   1    1.0969e-01    2.7665e+05 ;    C33 - H55   
   179    250   1    1.0969e-01    2.7665e+05 ;    C33 - H60   
   180    181   1    1.4316e-01    2.5824e+05 ;    C38 - O11   
   180    251   1    1.0969e-01    2.7665e+05 ;    C38 - H65   
   180    252   1    1.0969e-01    2.7665e+05 ;    C38 - H70   
   181    182   1    1.4316e-01    2.5824e+05 ;    O11 - C43   
   182    183   1    1.5375e-01    2.5179e+05 ;    C43 - C48   
   182    253   1    1.0969e-01    2.7665e+05 ;    C43 - H75   
   182    254   1    1.0969e-01    2.7665e+05 ;    C43 - H80   
   183    184   1    1.4316e-01    2.5824e+05 ;    C48 - O19   
   183    255   1    1.0969e-01    2.7665e+05 ;    C48 - H85   
   183    256   1    1.0969e-01    2.7665e+05 ;    C48 - H90   
   184    185   1    1.4316e-01    2.5824e+05 ;    O19 - C53   
   185    186   1    1.5375e-01    2.5179e+05 ;    C53 - C58   
   185    257   1    1.0969e-01    2.7665e+05 ;    C53 - H95   
   185    258   1    1.0969e-01    2.7665e+05 ;    C53 - H100  
   186    187   1    1.4316e-01    2.5824e+05 ;    C58 - O16   
   186    259   1    1.0969e-01    2.7665e+05 ;    C58 - H105  
   186    260   1    1.0969e-01    2.7665e+05 ;    C58 - H110  
   187    188   1    1.4316e-01    2.5824e+05 ;    O16 - C63   
   188    189   1    1.5375e-01    2.5179e+05 ;    C63 - C68   
   188    261   1    1.0969e-01    2.7665e+05 ;    C63 - H115  
   188    262   1    1.0969e-01    2.7665e+05 ;    C63 - H120  
   189    190   1    1.4316e-01    2.5824e+05 ;    C68 - O21   
   189    263   1    1.0969e-01    2.7665e+05 ;    C68 - H125  
   189    264   1    1.0969e-01    2.7665e+05 ;    C68 - H130  
   190    191   1    1.4316e-01    2.5824e+05 ;    O21 - C73   
   191    192   1    1.5375e-01    2.5179e+05 ;    C73 - C78   
   191    265   1    1.0969e-01    2.7665e+05 ;    C73 - H135  
   191    266   1    1.0969e-01    2.7665e+05 ;    C73 - H140  
   192    193   1    1.4316e-01    2.5824e+05 ;    C78 - O23   
   192    267   1    1.0969e-01    2.7665e+05 ;    C78 - H145  
   192    268   1    1.0969e-01    2.7665e+05 ;    C78 - H150  
   193    194   1    1.4316e-01    2.5824e+05 ;    O23 - C83   
   194    195   1    1.5375e-01    2.5179e+05 ;    C83 - C88   
   194    269   1    1.0969e-01    2.7665e+05 ;    C83 - H155  
   194    270   1    1.0969e-01    2.7665e+05 ;    C83 - H160  
   195    196   1    1.4629e-01    2.7422e+05 ;    C88 - N7    
   195    271   1    1.0969e-01    2.7665e+05 ;    C88 - H165  
   195    272   1    1.0969e-01    2.7665e+05 ;    C88 - H170  
   196    197   1    1.3558e-01    4.3965e+05 ;     N7 - N9    
   196    199   1    1.3802e-01    3.5631e+05 ;     N7 - C93   
   197    198   1    1.2988e-01    5.3346e+05 ;     N9 - N11   
   198    200   1    1.3694e-01    3.6911e+05 ;    N11 - C98   
   199    200   1    1.3729e-01    4.1915e+05 ;    C93 - C98   
   199    273   1    1.0817e-01    2.9455e+05 ;    C93 - H175  
   276    278   1    1.5375e-01    2.5179e+05 ;    C34 - C39   
   276    284   1    1.5375e-01    2.5179e+05 ;    C34 - C59   
   276    334   1    1.0969e-01    2.7665e+05 ;    C34 - H66   
   276    335   1    1.0969e-01    2.7665e+05 ;    C34 - H71   
   277    278   1    1.4233e-01    2.6501e+05 ;    O12 - C39   
   277    362   1    9.7300e-02    3.1079e+05 ;    O12 - H198  
   278    280   1    1.5375e-01    2.5179e+05 ;    C39 - C44   
   278    336   1    1.0969e-01    2.7665e+05 ;    C39 - H76   
   279    301   1    1.3789e-01    3.5782e+05 ;     N6 - C127  
   279    309   1    1.4619e-01    2.7506e+05 ;     N6 - C35   
   279    378   1    1.0129e-01    3.3740e+05 ;     N6 - H52   
   280    282   1    1.5375e-01    2.5179e+05 ;    C44 - C49   
   280    306   1    1.5375e-01    2.5179e+05 ;    C44 - C137  
   280    307   1    1.5375e-01    2.5179e+05 ;    C44 - C139  
   281    301   1    1.2183e-01    5.3363e+05 ;    O17 - C127  
   282    283   1    1.5375e-01    2.5179e+05 ;    C49 - C54   
   282    285   1    1.5375e-01    2.5179e+05 ;    C49 - C64   
   282    333   1    1.0969e-01    2.7665e+05 ;    C49 - H61   
   283    284   1    1.5375e-01    2.5179e+05 ;    C54 - C59   
   283    288   1    1.5375e-01    2.5179e+05 ;    C54 - C79   
   283    303   1    1.5375e-01    2.5179e+05 ;    C54 - C131  
   284    337   1    1.0969e-01    2.7665e+05 ;    C59 - H81   
   284    338   1    1.0969e-01    2.7665e+05 ;    C59 - H86   
   285    286   1    1.5375e-01    2.5179e+05 ;    C64 - C69   
   285    339   1    1.0969e-01    2.7665e+05 ;    C64 - H91   
   285    340   1    1.0969e-01    2.7665e+05 ;    C64 - H96   
   286    287   1    1.5375e-01    2.5179e+05 ;    C69 - C74   
   286    341   1    1.0969e-01    2.7665e+05 ;    C69 - H101  
   286    342   1    1.0969e-01    2.7665e+05 ;    C69 - H106  
   287    288   1    1.5375e-01    2.5179e+05 ;    C74 - C79   
   287    289   1    1.5375e-01    2.5179e+05 ;    C74 - C84   
   287    302   1    1.5375e-01    2.5179e+05 ;    C74 - C129  
   288    292   1    1.5375e-01    2.5179e+05 ;    C79 - C99   
   288    332   1    1.0969e-01    2.7665e+05 ;    C79 - H56   
   289    290   1    1.5095e-01    2.7347e+05 ;    C84 - C89   
   289    293   1    1.5375e-01    2.5179e+05 ;    C84 - C103  
   289    305   1    1.5375e-01    2.5179e+05 ;    C84 - C135  
   290    291   1    1.3343e-01    4.7647e+05 ;    C89 - C94   
   290    296   1    1.5095e-01    2.7347e+05 ;    C89 - C112  
   291    292   1    1.5095e-01    2.7347e+05 ;    C94 - C99   
   291    343   1    1.0879e-01    2.8711e+05 ;    C94 - H111  
   292    344   1    1.0969e-01    2.7665e+05 ;    C99 - H116  
   292    345   1    1.0969e-01    2.7665e+05 ;    C99 - H121  
   293    294   1    1.5375e-01    2.5179e+05 ;   C103 - C106  
   293    346   1    1.0969e-01    2.7665e+05 ;   C103 - H126  
   293    347   1    1.0969e-01    2.7665e+05 ;   C103 - H131  
   294    295   1    1.5375e-01    2.5179e+05 ;   C106 - C109  
   294    348   1    1.0969e-01    2.7665e+05 ;   C106 - H136  
   294    349   1    1.0969e-01    2.7665e+05 ;   C106 - H141  
   295    296   1    1.5375e-01    2.5179e+05 ;   C109 - C112  
   295    297   1    1.5375e-01    2.5179e+05 ;   C109 - C115  
   295    301   1    1.5241e-01    2.6192e+05 ;   C109 - C127  
   296    300   1    1.5375e-01    2.5179e+05 ;   C112 - C124  
   296    331   1    1.0969e-01    2.7665e+05 ;   C112 - H51   
   297    298   1    1.5375e-01    2.5179e+05 ;   C115 - C118  
   297    350   1    1.0969e-01    2.7665e+05 ;   C115 - H146  
   297    351   1    1.0969e-01    2.7665e+05 ;   C115 - H151  
   298    299   1    1.5375e-01    2.5179e+05 ;   C118 - C121  
   298    352   1    1.0969e-01    2.7665e+05 ;   C118 - H156  
   298    353   1    1.0969e-01    2.7665e+05 ;   C118 - H161  
   299    300   1    1.5375e-01    2.5179e+05 ;   C121 - C124  
   299    304   1    1.5375e-01    2.5179e+05 ;   C121 - C133  
   299    308   1    1.5375e-01    2.5179e+05 ;   C121 - C141  
   300    354   1    1.0969e-01    2.7665e+05 ;   C124 - H166  
   300    355   1    1.0969e-01    2.7665e+05 ;   C124 - H171  
   302    356   1    1.0969e-01    2.7665e+05 ;   C129 - H176  
   302    357   1    1.0969e-01    2.7665e+05 ;   C129 - H181  
   302    358   1    1.0969e-01    2.7665e+05 ;   C129 - H186  
   303    359   1    1.0969e-01    2.7665e+05 ;   C131 - H190  
   303    360   1    1.0969e-01    2.7665e+05 ;   C131 - H193  
   303    361   1    1.0969e-01    2.7665e+05 ;   C131 - H196  
   304    363   1    1.0969e-01    2.7665e+05 ;   C133 - H200  
   304    364   1    1.0969e-01    2.7665e+05 ;   C133 - H202  
   304    365   1    1.0969e-01    2.7665e+05 ;   C133 - H204  
   305    366   1    1.0969e-01    2.7665e+05 ;   C135 - H206  
   305    367   1    1.0969e-01    2.7665e+05 ;   C135 - H208  
   305    368   1    1.0969e-01    2.7665e+05 ;   C135 - H210  
   306    369   1    1.0969e-01    2.7665e+05 ;   C137 - H212  
   306    370   1    1.0969e-01    2.7665e+05 ;   C137 - H214  
   306    371   1    1.0969e-01    2.7665e+05 ;   C137 - H216  
   307    372   1    1.0969e-01    2.7665e+05 ;   C139 - H218  
   307    373   1    1.0969e-01    2.7665e+05 ;   C139 - H220  
   307    374   1    1.0969e-01    2.7665e+05 ;   C139 - H222  
   308    375   1    1.0969e-01    2.7665e+05 ;   C141 - H224  
   308    376   1    1.0969e-01    2.7665e+05 ;   C141 - H226  
   308    377   1    1.0969e-01    2.7665e+05 ;   C141 - H228  
   309    310   1    1.5375e-01    2.5179e+05 ;    C35 - C40   
   309    379   1    1.0969e-01    2.7665e+05 ;    C35 - H57   
   309    380   1    1.0969e-01    2.7665e+05 ;    C35 - H62   
   310    311   1    1.4316e-01    2.5824e+05 ;    C40 - O13   
   310    381   1    1.0969e-01    2.7665e+05 ;    C40 - H67   
   310    382   1    1.0969e-01    2.7665e+05 ;    C40 - H72   
   311    312   1    1.4316e-01    2.5824e+05 ;    O13 - C45   
   312    313   1    1.5375e-01    2.5179e+05 ;    C45 - C50   
   312    383   1    1.0969e-01    2.7665e+05 ;    C45 - H77   
   312    384   1    1.0969e-01    2.7665e+05 ;    C45 - H82   
   313    314   1    1.4316e-01    2.5824e+05 ;    C50 - O20   
   313    385   1    1.0969e-01    2.7665e+05 ;    C50 - H87   
   313    386   1    1.0969e-01    2.7665e+05 ;    C50 - H92   
   314    315   1    1.4316e-01    2.5824e+05 ;    O20 - C55   
   315    316   1    1.5375e-01    2.5179e+05 ;    C55 - C60   
   315    387   1    1.0969e-01    2.7665e+05 ;    C55 - H97   
   315    388   1    1.0969e-01    2.7665e+05 ;    C55 - H102  
   316    317   1    1.4316e-01    2.5824e+05 ;    C60 - O18   
   316    389   1    1.0969e-01    2.7665e+05 ;    C60 - H107  
   316    390   1    1.0969e-01    2.7665e+05 ;    C60 - H112  
   317    318   1    1.4316e-01    2.5824e+05 ;    O18 - C65   
   318    319   1    1.5375e-01    2.5179e+05 ;    C65 - C70   
   318    391   1    1.0969e-01    2.7665e+05 ;    C65 - H117  
   318    392   1    1.0969e-01    2.7665e+05 ;    C65 - H122  
   319    320   1    1.4316e-01    2.5824e+05 ;    C70 - O22   
   319    393   1    1.0969e-01    2.7665e+05 ;    C70 - H127  
   319    394   1    1.0969e-01    2.7665e+05 ;    C70 - H132  
   320    321   1    1.4316e-01    2.5824e+05 ;    O22 - C75   
   321    322   1    1.5375e-01    2.5179e+05 ;    C75 - C80   
   321    395   1    1.0969e-01    2.7665e+05 ;    C75 - H137  
   321    396   1    1.0969e-01    2.7665e+05 ;    C75 - H142  
   322    323   1    1.4316e-01    2.5824e+05 ;    C80 - O24   
   322    397   1    1.0969e-01    2.7665e+05 ;    C80 - H147  
   322    398   1    1.0969e-01    2.7665e+05 ;    C80 - H152  
   323    324   1    1.4316e-01    2.5824e+05 ;    O24 - C85   
   324    325   1    1.5375e-01    2.5179e+05 ;    C85 - C90   
   324    399   1    1.0969e-01    2.7665e+05 ;    C85 - H157  
   324    400   1    1.0969e-01    2.7665e+05 ;    C85 - H162  
   325    326   1    1.4629e-01    2.7422e+05 ;    C90 - N8    
   325    401   1    1.0969e-01    2.7665e+05 ;    C90 - H167  
   325    402   1    1.0969e-01    2.7665e+05 ;    C90 - H172  
   326    327   1    1.3558e-01    4.3965e+05 ;     N8 - N10   
   326    330   1    1.3802e-01    3.5631e+05 ;     N8 - C100  
   327    328   1    1.2988e-01    5.3346e+05 ;    N10 - N12   
   328    329   1    1.3694e-01    3.6911e+05 ;    N12 - C95   
   329    330   1    1.3729e-01    4.1915e+05 ;    C95 - C100  
   330    403   1    1.0817e-01    2.9455e+05 ;   C100 - H177  

[ pairs ]
;   ai     aj    funct
     1      7      1 ;     C1 - C4    
     1     13      1 ;     C1 - C10   
     1     28      1 ;     C1 - C25   
     1     31      1 ;     C1 - C28   
     1     32      1 ;     C1 - C29   
     1     99      1 ;     C1 - H32   
     2      7      1 ;     O1 - C4    
     2     31      1 ;     O1 - C28   
     2     32      1 ;     O1 - C29   
     3      8      1 ;     C2 - C5    
     3     10      1 ;     C2 - C7    
     3     70      1 ;     C2 - H3    
     3     74      1 ;     C2 - H7    
     3     75      1 ;     C2 - H8    
     3    106      1 ;     C2 - H39   
     3    107      1 ;     C2 - H40   
     3    108      1 ;     C2 - H41   
     3    109      1 ;     C2 - H42   
     3    110      1 ;     C2 - H43   
     3    111      1 ;     C2 - H44   
     4     19      1 ;     N1 - C16   
     4     21      1 ;     N1 - C18   
     4     22      1 ;     N1 - C19   
     4     36      1 ;     N1 - O9    
     4    118      1 ;     N1 - H63   
     4    119      1 ;     N1 - H68   
     5     11      1 ;     C3 - C8    
     5     13      1 ;     C3 - C10   
     5     28      1 ;     C3 - C25   
     5     76      1 ;     C3 - H9    
     5     77      1 ;     C3 - H10   
     5     99      1 ;     C3 - H32   
     6     19      1 ;     O3 - C16   
     6     21      1 ;     O3 - C18   
     6     22      1 ;     O3 - C19   
     6     34      1 ;     O3 - C31   
     6    115      1 ;     O3 - H48   
     7     12      1 ;     C4 - C9    
     7     17      1 ;     C4 - C14   
     7     69      1 ;     C4 - H2    
     7     73      1 ;     C4 - H6    
     7     74      1 ;     C4 - H7    
     7     75      1 ;     C4 - H8    
     7     78      1 ;     C4 - H11   
     7     79      1 ;     C4 - H12   
     7     96      1 ;     C4 - H29   
     7     97      1 ;     C4 - H30   
     7     98      1 ;     C4 - H31   
     7    106      1 ;     C4 - H39   
     7    107      1 ;     C4 - H40   
     7    108      1 ;     C4 - H41   
     7    109      1 ;     C4 - H42   
     7    110      1 ;     C4 - H43   
     7    111      1 ;     C4 - H44   
     8     11      1 ;     C5 - C8    
     8     14      1 ;     C5 - C11   
     8     16      1 ;     C5 - C13   
     8     27      1 ;     C5 - C24   
     8     31      1 ;     C5 - C28   
     8     32      1 ;     C5 - C29   
     8     76      1 ;     C5 - H9    
     8     77      1 ;     C5 - H10   
     8     81      1 ;     C5 - H14   
     8     82      1 ;     C5 - H15   
     9      2      1 ;     C6 - O1    
     9      5      1 ;     C6 - C3    
     9     10      1 ;     C6 - C7    
     9     12      1 ;     C6 - C9    
     9     17      1 ;     C6 - C14   
     9     69      1 ;     C6 - H2    
     9     70      1 ;     C6 - H3    
     9     73      1 ;     C6 - H6    
     9     96      1 ;     C6 - H29   
     9     97      1 ;     C6 - H30   
     9     98      1 ;     C6 - H31   
    10     13      1 ;     C7 - C10   
    10     14      1 ;     C7 - C11   
    10     27      1 ;     C7 - C24   
    10     28      1 ;     C7 - C25   
    10     31      1 ;     C7 - C28   
    10     32      1 ;     C7 - C29   
    11     15      1 ;     C8 - C12   
    11     17      1 ;     C8 - C14   
    11     18      1 ;     C8 - C15   
    11     30      1 ;     C8 - C27   
    11     69      1 ;     C8 - H2    
    11     70      1 ;     C8 - H3    
    11     93      1 ;     C8 - H26   
    11     94      1 ;     C8 - H27   
    11     95      1 ;     C8 - H28   
    12     16      1 ;     C9 - C13   
    12     19      1 ;     C9 - C16   
    12     21      1 ;     C9 - C18   
    12     28      1 ;     C9 - C25   
    12     76      1 ;     C9 - H9    
    12     77      1 ;     C9 - H10   
    12     81      1 ;     C9 - H14   
    12     82      1 ;     C9 - H15   
    12     83      1 ;     C9 - H16   
    12     84      1 ;     C9 - H17   
    12    103      1 ;     C9 - H36   
    12    104      1 ;     C9 - H37   
    12    105      1 ;     C9 - H38   
    13     15      1 ;    C10 - C12   
    13     18      1 ;    C10 - C15   
    13     30      1 ;    C10 - C27   
    13     70      1 ;    C10 - H3    
    13     74      1 ;    C10 - H7    
    13     75      1 ;    C10 - H8    
    13     78      1 ;    C10 - H11   
    13     79      1 ;    C10 - H12   
    13     80      1 ;    C10 - H13   
    13     93      1 ;    C10 - H26   
    13     94      1 ;    C10 - H27   
    13     95      1 ;    C10 - H28   
    13     96      1 ;    C10 - H29   
    13     97      1 ;    C10 - H30   
    13     98      1 ;    C10 - H31   
    14     17      1 ;    C11 - C14   
    14     20      1 ;    C11 - C17   
    14     25      1 ;    C11 - C22   
    14     68      1 ;    C11 - H1    
    14     69      1 ;    C11 - H2    
    14     78      1 ;    C11 - H11   
    14     79      1 ;    C11 - H12   
    14     80      1 ;    C11 - H13   
    14     85      1 ;    C11 - H18   
    14     86      1 ;    C11 - H19   
    14     93      1 ;    C11 - H26   
    14     94      1 ;    C11 - H27   
    14     95      1 ;    C11 - H28   
    15     19      1 ;    C12 - C16   
    15     22      1 ;    C12 - C19   
    15     24      1 ;    C12 - C21   
    15     26      1 ;    C12 - C23   
    15     27      1 ;    C12 - C24   
    15     81      1 ;    C12 - H14   
    15     82      1 ;    C12 - H15   
    15     83      1 ;    C12 - H16   
    15     84      1 ;    C12 - H17   
    15     91      1 ;    C12 - H24   
    15     92      1 ;    C12 - H25   
    15    103      1 ;    C12 - H36   
    15    104      1 ;    C12 - H37   
    15    105      1 ;    C12 - H38   
    16     18      1 ;    C13 - C15   
    16     20      1 ;    C13 - C17   
    16     25      1 ;    C13 - C22   
    16     30      1 ;    C13 - C27   
    16     68      1 ;    C13 - H1    
    16     69      1 ;    C13 - H2    
    17     21      1 ;    C14 - C18   
    17     27      1 ;    C14 - C24   
    17     28      1 ;    C14 - C25   
    18     21      1 ;    C15 - C18   
    18     22      1 ;    C15 - C19   
    18     26      1 ;    C15 - C23   
    18     27      1 ;    C15 - C24   
    18    103      1 ;    C15 - H36   
    18    104      1 ;    C15 - H37   
    18    105      1 ;    C15 - H38   
    19     23      1 ;    C16 - C20   
    19     25      1 ;    C16 - C22   
    19     30      1 ;    C16 - C27   
    19     68      1 ;    C16 - H1    
    19     87      1 ;    C16 - H20   
    19     88      1 ;    C16 - H21   
    20     24      1 ;    C17 - C21   
    20     34      1 ;    C17 - C31   
    20     83      1 ;    C17 - H16   
    20     84      1 ;    C17 - H17   
    20     89      1 ;    C17 - H22   
    20     90      1 ;    C17 - H23   
    20     91      1 ;    C17 - H24   
    20     92      1 ;    C17 - H25   
    20    115      1 ;    C17 - H48   
    21     23      1 ;    C18 - C20   
    21     29      1 ;    C18 - C26   
    21     30      1 ;    C18 - C27   
    21     33      1 ;    C18 - C30   
    21     80      1 ;    C18 - H13   
    21     85      1 ;    C18 - H18   
    21     86      1 ;    C18 - H19   
    21     87      1 ;    C18 - H20   
    21     88      1 ;    C18 - H21   
    22     25      1 ;    C19 - C22   
    22     29      1 ;    C19 - C26   
    22     33      1 ;    C19 - C30   
    22     68      1 ;    C19 - H1    
    22     85      1 ;    C19 - H18   
    22     86      1 ;    C19 - H19   
    23     26      1 ;    C20 - C23   
    23     91      1 ;    C20 - H24   
    23     92      1 ;    C20 - H25   
    23    100      1 ;    C20 - H33   
    23    101      1 ;    C20 - H34   
    23    102      1 ;    C20 - H35   
    23    112      1 ;    C20 - H45   
    23    113      1 ;    C20 - H46   
    23    114      1 ;    C20 - H47   
    24     68      1 ;    C21 - H1    
    24     87      1 ;    C21 - H20   
    24     88      1 ;    C21 - H21   
    25     26      1 ;    C22 - C23   
    25     89      1 ;    C22 - H22   
    25     90      1 ;    C22 - H23   
    25    100      1 ;    C22 - H33   
    25    101      1 ;    C22 - H34   
    25    102      1 ;    C22 - H35   
    25    112      1 ;    C22 - H45   
    25    113      1 ;    C22 - H46   
    25    114      1 ;    C22 - H47   
    26     35      1 ;    C23 - C36   
    26     68      1 ;    C23 - H1    
    26     85      1 ;    C23 - H18   
    26     86      1 ;    C23 - H19   
    26     87      1 ;    C23 - H20   
    26     88      1 ;    C23 - H21   
    26    116      1 ;    C23 - H53   
    26    117      1 ;    C23 - H58   
    27     30      1 ;    C24 - C27   
    27     69      1 ;    C24 - H2    
    27     78      1 ;    C24 - H11   
    27     79      1 ;    C24 - H12   
    28     69      1 ;    C25 - H2    
    28     70      1 ;    C25 - H3    
    28     74      1 ;    C25 - H7    
    28     75      1 ;    C25 - H8    
    29     89      1 ;    C26 - H22   
    29     90      1 ;    C26 - H23   
    29     91      1 ;    C26 - H24   
    29     92      1 ;    C26 - H25   
    29    112      1 ;    C26 - H45   
    29    113      1 ;    C26 - H46   
    29    114      1 ;    C26 - H47   
    30     83      1 ;    C27 - H16   
    30     84      1 ;    C27 - H17   
    31     70      1 ;    C28 - H3    
    31     73      1 ;    C28 - H6    
    31    109      1 ;    C28 - H42   
    31    110      1 ;    C28 - H43   
    31    111      1 ;    C28 - H44   
    32     70      1 ;    C29 - H3    
    32     73      1 ;    C29 - H6    
    32    106      1 ;    C29 - H39   
    32    107      1 ;    C29 - H40   
    32    108      1 ;    C29 - H41   
    33     89      1 ;    C30 - H22   
    33     90      1 ;    C30 - H23   
    33     91      1 ;    C30 - H24   
    33     92      1 ;    C30 - H25   
    33    100      1 ;    C30 - H33   
    33    101      1 ;    C30 - H34   
    33    102      1 ;    C30 - H35   
    34     37      1 ;    C31 - C41   
    35     38      1 ;    C36 - C46   
    35    115      1 ;    C36 - H48   
    35    120      1 ;    C36 - H73   
    35    121      1 ;    C36 - H78   
    36     39      1 ;     O9 - O2    
    36    116      1 ;     O9 - H53   
    36    117      1 ;     O9 - H58   
    36    122      1 ;     O9 - H83   
    36    123      1 ;     O9 - H88   
    37     40      1 ;    C41 - C51   
    37    118      1 ;    C41 - H63   
    37    119      1 ;    C41 - H68   
    38     41      1 ;    C46 - C56   
    38    124      1 ;    C46 - H93   
    38    125      1 ;    C46 - H98   
    39     42      1 ;     O2 - O14   
    39    120      1 ;     O2 - H73   
    39    121      1 ;     O2 - H78   
    39    126      1 ;     O2 - H103  
    39    127      1 ;     O2 - H108  
    40     43      1 ;    C51 - C61   
    40    122      1 ;    C51 - H83   
    40    123      1 ;    C51 - H88   
    41     44      1 ;    C56 - C66   
    41    128      1 ;    C56 - H113  
    41    129      1 ;    C56 - H118  
    42     45      1 ;    O14 - O4    
    42    124      1 ;    O14 - H93   
    42    125      1 ;    O14 - H98   
    42    130      1 ;    O14 - H123  
    42    131      1 ;    O14 - H128  
    43     46      1 ;    C61 - C71   
    43    126      1 ;    C61 - H103  
    43    127      1 ;    C61 - H108  
    44     47      1 ;    C66 - C76   
    44    132      1 ;    C66 - H133  
    44    133      1 ;    C66 - H138  
    45     48      1 ;     O4 - O5    
    45    128      1 ;     O4 - H113  
    45    129      1 ;     O4 - H118  
    45    134      1 ;     O4 - H143  
    45    135      1 ;     O4 - H148  
    46     49      1 ;    C71 - C81   
    46    130      1 ;    C71 - H123  
    46    131      1 ;    C71 - H128  
    47     50      1 ;    C76 - C86   
    47    136      1 ;    C76 - H153  
    47    137      1 ;    C76 - H158  
    48     51      1 ;     O5 - N2    
    48    132      1 ;     O5 - H133  
    48    133      1 ;     O5 - H138  
    48    138      1 ;     O5 - H163  
    48    139      1 ;     O5 - H168  
    49     52      1 ;    C81 - N3    
    49     54      1 ;    C81 - C91   
    49    134      1 ;    C81 - H143  
    49    135      1 ;    C81 - H148  
    50     53      1 ;    C86 - N4    
    50     55      1 ;    C86 - C96   
    50    140      1 ;    C86 - H173  
    51     56      1 ;     N2 - C101  
    51    136      1 ;     N2 - H153  
    51    137      1 ;     N2 - H158  
    52     56      1 ;     N3 - C101  
    52    138      1 ;     N3 - H163  
    52    139      1 ;     N3 - H168  
    52    140      1 ;     N3 - H173  
    53     57      1 ;     N4 - O6    
    53    140      1 ;     N4 - H173  
    53    141      1 ;     N4 - H178  
    53    142      1 ;     N4 - H183  
    54     57      1 ;    C91 - O6    
    54    138      1 ;    C91 - H163  
    54    139      1 ;    C91 - H168  
    54    141      1 ;    C91 - H178  
    54    142      1 ;    C91 - H183  
    55     58      1 ;    C96 - C104  
    56     59      1 ;   C101 - C107  
    56     60      1 ;   C101 - C110  
    56    140      1 ;   C101 - H173  
    57     61      1 ;     O6 - C113  
    57     63      1 ;     O6 - C119  
    57    143      1 ;     O6 - H188  
    57    144      1 ;     O6 - H191  
    58     62      1 ;   C104 - C116  
    58     64      1 ;   C104 - O7    
    58     65      1 ;   C104 - O8    
    58    141      1 ;   C104 - H178  
    58    142      1 ;   C104 - H183  
    59     61      1 ;   C107 - C113  
    59     66      1 ;   C107 - C122  
    59    144      1 ;   C107 - H191  
    59    145      1 ;   C107 - H194  
    60     63      1 ;   C110 - C119  
    60     67      1 ;   C110 - C125  
    60    143      1 ;   C110 - H188  
    60    145      1 ;   C110 - H194  
    61     65      1 ;   C113 - O8    
    61    329      1 ;   C113 - C95   
    61    404      1 ;   C113 - H182  
    61    405      1 ;   C113 - H187  
    62     66      1 ;   C116 - C122  
    62     67      1 ;   C116 - C125  
    62    143      1 ;   C116 - H188  
    62    144      1 ;   C116 - H191  
    63     64      1 ;   C119 - O7    
    63    200      1 ;   C119 - C98   
    63    274      1 ;   C119 - H180  
    63    275      1 ;   C119 - H185  
    64    144      1 ;     O7 - H191  
    64    145      1 ;     O7 - H194  
    64    328      1 ;     O7 - N12   
    64    330      1 ;     O7 - C100  
    65    143      1 ;     O8 - H188  
    65    145      1 ;     O8 - H194  
    65    198      1 ;     O8 - N11   
    65    199      1 ;     O8 - C93   
    66    196      1 ;   C122 - N7    
    66    197      1 ;   C122 - N9    
    66    273      1 ;   C122 - H175  
    67    326      1 ;   C125 - N8    
    67    327      1 ;   C125 - N10   
    67    403      1 ;   C125 - H177  
    68     91      1 ;     H1 - H24   
    68     92      1 ;     H1 - H25   
    69     81      1 ;     H2 - H14   
    69     82      1 ;     H2 - H15   
    70     76      1 ;     H3 - H9    
    70     77      1 ;     H3 - H10   
    71      2      1 ;     H4 - O1    
    71      5      1 ;     H4 - C3    
    71      8      1 ;     H4 - C5    
    71     73      1 ;     H4 - H6    
    71     74      1 ;     H4 - H7    
    71     75      1 ;     H4 - H8    
    72      2      1 ;     H5 - O1    
    72      5      1 ;     H5 - C3    
    72      8      1 ;     H5 - C5    
    72     73      1 ;     H5 - H6    
    72     74      1 ;     H5 - H7    
    72     75      1 ;     H5 - H8    
    73     99      1 ;     H6 - H32   
    76     78      1 ;     H9 - H11   
    76     79      1 ;     H9 - H12   
    77     78      1 ;    H10 - H11   
    77     79      1 ;    H10 - H12   
    80     81      1 ;    H13 - H14   
    80     82      1 ;    H13 - H15   
    83     85      1 ;    H16 - H18   
    83     86      1 ;    H16 - H19   
    84     85      1 ;    H17 - H18   
    84     86      1 ;    H17 - H19   
    87     89      1 ;    H20 - H22   
    87     90      1 ;    H20 - H23   
    88     89      1 ;    H21 - H22   
    88     90      1 ;    H21 - H23   
   115    116      1 ;    H48 - H53   
   115    117      1 ;    H48 - H58   
   116    118      1 ;    H53 - H63   
   116    119      1 ;    H53 - H68   
   117    118      1 ;    H58 - H63   
   117    119      1 ;    H58 - H68   
   120    122      1 ;    H73 - H83   
   120    123      1 ;    H73 - H88   
   121    122      1 ;    H78 - H83   
   121    123      1 ;    H78 - H88   
   124    126      1 ;    H93 - H103  
   124    127      1 ;    H93 - H108  
   125    126      1 ;    H98 - H103  
   125    127      1 ;    H98 - H108  
   128    130      1 ;   H113 - H123  
   128    131      1 ;   H113 - H128  
   129    130      1 ;   H118 - H123  
   129    131      1 ;   H118 - H128  
   132    134      1 ;   H133 - H143  
   132    135      1 ;   H133 - H148  
   133    134      1 ;   H138 - H143  
   133    135      1 ;   H138 - H148  
   136    138      1 ;   H153 - H163  
   136    139      1 ;   H153 - H168  
   137    138      1 ;   H158 - H163  
   137    139      1 ;   H158 - H168  
   146    152      1 ;    C32 - C47   
   146    158      1 ;    C32 - C77   
   146    173      1 ;    C32 - C130  
   146    176      1 ;    C32 - C136  
   146    177      1 ;    C32 - C138  
   146    232      1 ;    C32 - H197  
   147    152      1 ;    O10 - C47   
   147    154      1 ;    O10 - C57   
   147    176      1 ;    O10 - C136  
   147    177      1 ;    O10 - C138  
   147    204      1 ;    O10 - H64   
   147    205      1 ;    O10 - H69   
   148    153      1 ;    C37 - C52   
   148    155      1 ;    C37 - C62   
   148    203      1 ;    C37 - H59   
   148    207      1 ;    C37 - H79   
   148    208      1 ;    C37 - H84   
   148    239      1 ;    C37 - H211  
   148    240      1 ;    C37 - H213  
   148    241      1 ;    C37 - H215  
   148    242      1 ;    C37 - H217  
   148    243      1 ;    C37 - H219  
   148    244      1 ;    C37 - H221  
   149    164      1 ;     N5 - C105  
   149    166      1 ;     N5 - C111  
   149    167      1 ;     N5 - C114  
   149    181      1 ;     N5 - O11   
   149    251      1 ;     N5 - H65   
   149    252      1 ;     N5 - H70   
   150    154      1 ;    C42 - C57   
   150    156      1 ;    C42 - C67   
   150    158      1 ;    C42 - C77   
   150    173      1 ;    C42 - C130  
   150    204      1 ;    C42 - H64   
   150    205      1 ;    C42 - H69   
   150    209      1 ;    C42 - H89   
   150    210      1 ;    C42 - H94   
   150    232      1 ;    C42 - H197  
   151    164      1 ;    O15 - C105  
   151    166      1 ;    O15 - C111  
   151    167      1 ;    O15 - C114  
   151    179      1 ;    O15 - C33   
   151    248      1 ;    O15 - H50   
   152    157      1 ;    C47 - C72   
   152    162      1 ;    C47 - C97   
   152    202      1 ;    C47 - H54   
   152    206      1 ;    C47 - H74   
   152    207      1 ;    C47 - H79   
   152    208      1 ;    C47 - H84   
   152    211      1 ;    C47 - H99   
   152    212      1 ;    C47 - H104  
   152    229      1 ;    C47 - H189  
   152    230      1 ;    C47 - H192  
   152    231      1 ;    C47 - H195  
   152    239      1 ;    C47 - H211  
   152    240      1 ;    C47 - H213  
   152    241      1 ;    C47 - H215  
   152    242      1 ;    C47 - H217  
   152    243      1 ;    C47 - H219  
   152    244      1 ;    C47 - H221  
   153    156      1 ;    C52 - C67   
   153    159      1 ;    C52 - C82   
   153    161      1 ;    C52 - C92   
   153    172      1 ;    C52 - C128  
   153    176      1 ;    C52 - C136  
   153    177      1 ;    C52 - C138  
   153    204      1 ;    C52 - H64   
   153    205      1 ;    C52 - H69   
   153    209      1 ;    C52 - H89   
   153    210      1 ;    C52 - H94   
   153    214      1 ;    C52 - H114  
   153    215      1 ;    C52 - H119  
   154    155      1 ;    C57 - C62   
   154    157      1 ;    C57 - C72   
   154    162      1 ;    C57 - C97   
   154    202      1 ;    C57 - H54   
   154    203      1 ;    C57 - H59   
   154    206      1 ;    C57 - H74   
   154    229      1 ;    C57 - H189  
   154    230      1 ;    C57 - H192  
   154    231      1 ;    C57 - H195  
   155    158      1 ;    C62 - C77   
   155    159      1 ;    C62 - C82   
   155    172      1 ;    C62 - C128  
   155    173      1 ;    C62 - C130  
   155    176      1 ;    C62 - C136  
   155    177      1 ;    C62 - C138  
   156    160      1 ;    C67 - C87   
   156    162      1 ;    C67 - C97   
   156    163      1 ;    C67 - C102  
   156    175      1 ;    C67 - C134  
   156    202      1 ;    C67 - H54   
   156    203      1 ;    C67 - H59   
   156    226      1 ;    C67 - H174  
   156    227      1 ;    C67 - H179  
   156    228      1 ;    C67 - H184  
   157    161      1 ;    C72 - C92   
   157    164      1 ;    C72 - C105  
   157    166      1 ;    C72 - C111  
   157    173      1 ;    C72 - C130  
   157    209      1 ;    C72 - H89   
   157    210      1 ;    C72 - H94   
   157    214      1 ;    C72 - H114  
   157    215      1 ;    C72 - H119  
   157    216      1 ;    C72 - H124  
   157    217      1 ;    C72 - H129  
   157    236      1 ;    C72 - H205  
   157    237      1 ;    C72 - H207  
   157    238      1 ;    C72 - H209  
   158    160      1 ;    C77 - C87   
   158    163      1 ;    C77 - C102  
   158    175      1 ;    C77 - C134  
   158    203      1 ;    C77 - H59   
   158    207      1 ;    C77 - H79   
   158    208      1 ;    C77 - H84   
   158    211      1 ;    C77 - H99   
   158    212      1 ;    C77 - H104  
   158    213      1 ;    C77 - H109  
   158    226      1 ;    C77 - H174  
   158    227      1 ;    C77 - H179  
   158    228      1 ;    C77 - H184  
   158    229      1 ;    C77 - H189  
   158    230      1 ;    C77 - H192  
   158    231      1 ;    C77 - H195  
   159    162      1 ;    C82 - C97   
   159    165      1 ;    C82 - C108  
   159    170      1 ;    C82 - C123  
   159    201      1 ;    C82 - H49   
   159    202      1 ;    C82 - H54   
   159    211      1 ;    C82 - H99   
   159    212      1 ;    C82 - H104  
   159    213      1 ;    C82 - H109  
   159    218      1 ;    C82 - H134  
   159    219      1 ;    C82 - H139  
   159    226      1 ;    C82 - H174  
   159    227      1 ;    C82 - H179  
   159    228      1 ;    C82 - H184  
   160    164      1 ;    C87 - C105  
   160    167      1 ;    C87 - C114  
   160    169      1 ;    C87 - C120  
   160    171      1 ;    C87 - C126  
   160    172      1 ;    C87 - C128  
   160    214      1 ;    C87 - H114  
   160    215      1 ;    C87 - H119  
   160    216      1 ;    C87 - H124  
   160    217      1 ;    C87 - H129  
   160    224      1 ;    C87 - H164  
   160    225      1 ;    C87 - H169  
   160    236      1 ;    C87 - H205  
   160    237      1 ;    C87 - H207  
   160    238      1 ;    C87 - H209  
   161    163      1 ;    C92 - C102  
   161    165      1 ;    C92 - C108  
   161    170      1 ;    C92 - C123  
   161    175      1 ;    C92 - C134  
   161    201      1 ;    C92 - H49   
   161    202      1 ;    C92 - H54   
   162    166      1 ;    C97 - C111  
   162    172      1 ;    C97 - C128  
   162    173      1 ;    C97 - C130  
   163    166      1 ;   C102 - C111  
   163    167      1 ;   C102 - C114  
   163    171      1 ;   C102 - C126  
   163    172      1 ;   C102 - C128  
   163    236      1 ;   C102 - H205  
   163    237      1 ;   C102 - H207  
   163    238      1 ;   C102 - H209  
   164    168      1 ;   C105 - C117  
   164    170      1 ;   C105 - C123  
   164    175      1 ;   C105 - C134  
   164    201      1 ;   C105 - H49   
   164    220      1 ;   C105 - H144  
   164    221      1 ;   C105 - H149  
   165    169      1 ;   C108 - C120  
   165    179      1 ;   C108 - C33   
   165    216      1 ;   C108 - H124  
   165    217      1 ;   C108 - H129  
   165    222      1 ;   C108 - H154  
   165    223      1 ;   C108 - H159  
   165    224      1 ;   C108 - H164  
   165    225      1 ;   C108 - H169  
   165    248      1 ;   C108 - H50   
   166    168      1 ;   C111 - C117  
   166    174      1 ;   C111 - C132  
   166    175      1 ;   C111 - C134  
   166    178      1 ;   C111 - C140  
   166    213      1 ;   C111 - H109  
   166    218      1 ;   C111 - H134  
   166    219      1 ;   C111 - H139  
   166    220      1 ;   C111 - H144  
   166    221      1 ;   C111 - H149  
   167    170      1 ;   C114 - C123  
   167    174      1 ;   C114 - C132  
   167    178      1 ;   C114 - C140  
   167    201      1 ;   C114 - H49   
   167    218      1 ;   C114 - H134  
   167    219      1 ;   C114 - H139  
   168    171      1 ;   C117 - C126  
   168    224      1 ;   C117 - H164  
   168    225      1 ;   C117 - H169  
   168    233      1 ;   C117 - H199  
   168    234      1 ;   C117 - H201  
   168    235      1 ;   C117 - H203  
   168    245      1 ;   C117 - H223  
   168    246      1 ;   C117 - H225  
   168    247      1 ;   C117 - H227  
   169    201      1 ;   C120 - H49   
   169    220      1 ;   C120 - H144  
   169    221      1 ;   C120 - H149  
   170    171      1 ;   C123 - C126  
   170    222      1 ;   C123 - H154  
   170    223      1 ;   C123 - H159  
   170    233      1 ;   C123 - H199  
   170    234      1 ;   C123 - H201  
   170    235      1 ;   C123 - H203  
   170    245      1 ;   C123 - H223  
   170    246      1 ;   C123 - H225  
   170    247      1 ;   C123 - H227  
   171    180      1 ;   C126 - C38   
   171    201      1 ;   C126 - H49   
   171    218      1 ;   C126 - H134  
   171    219      1 ;   C126 - H139  
   171    220      1 ;   C126 - H144  
   171    221      1 ;   C126 - H149  
   171    249      1 ;   C126 - H55   
   171    250      1 ;   C126 - H60   
   172    175      1 ;   C128 - C134  
   172    202      1 ;   C128 - H54   
   172    211      1 ;   C128 - H99   
   172    212      1 ;   C128 - H104  
   173    202      1 ;   C130 - H54   
   173    203      1 ;   C130 - H59   
   173    207      1 ;   C130 - H79   
   173    208      1 ;   C130 - H84   
   174    222      1 ;   C132 - H154  
   174    223      1 ;   C132 - H159  
   174    224      1 ;   C132 - H164  
   174    225      1 ;   C132 - H169  
   174    245      1 ;   C132 - H223  
   174    246      1 ;   C132 - H225  
   174    247      1 ;   C132 - H227  
   175    216      1 ;   C134 - H124  
   175    217      1 ;   C134 - H129  
   176    203      1 ;   C136 - H59   
   176    206      1 ;   C136 - H74   
   176    242      1 ;   C136 - H217  
   176    243      1 ;   C136 - H219  
   176    244      1 ;   C136 - H221  
   177    203      1 ;   C138 - H59   
   177    206      1 ;   C138 - H74   
   177    239      1 ;   C138 - H211  
   177    240      1 ;   C138 - H213  
   177    241      1 ;   C138 - H215  
   178    222      1 ;   C140 - H154  
   178    223      1 ;   C140 - H159  
   178    224      1 ;   C140 - H164  
   178    225      1 ;   C140 - H169  
   178    233      1 ;   C140 - H199  
   178    234      1 ;   C140 - H201  
   178    235      1 ;   C140 - H203  
   179    182      1 ;    C33 - C43   
   180    183      1 ;    C38 - C48   
   180    248      1 ;    C38 - H50   
   180    253      1 ;    C38 - H75   
   180    254      1 ;    C38 - H80   
   181    184      1 ;    O11 - O19   
   181    249      1 ;    O11 - H55   
   181    250      1 ;    O11 - H60   
   181    255      1 ;    O11 - H85   
   181    256      1 ;    O11 - H90   
   182    185      1 ;    C43 - C53   
   182    251      1 ;    C43 - H65   
   182    252      1 ;    C43 - H70   
   183    186      1 ;    C48 - C58   
   183    257      1 ;    C48 - H95   
   183    258      1 ;    C48 - H100  
   184    187      1 ;    O19 - O16   
   184    253      1 ;    O19 - H75   
   184    254      1 ;    O19 - H80   
   184    259      1 ;    O19 - H105  
   184    260      1 ;    O19 - H110  
   185    188      1 ;    C53 - C63   
   185    255      1 ;    C53 - H85   
   185    256      1 ;    C53 - H90   
   186    189      1 ;    C58 - C68   
   186    261      1 ;    C58 - H115  
   186    262      1 ;    C58 - H120  
   187    190      1 ;    O16 - O21   
   187    257      1 ;    O16 - H95   
   187    258      1 ;    O16 - H100  
   187    263      1 ;    O16 - H125  
   187    264      1 ;    O16 - H130  
   188    191      1 ;    C63 - C73   
   188    259      1 ;    C63 - H105  
   188    260      1 ;    C63 - H110  
   189    192      1 ;    C68 - C78   
   189    265      1 ;    C68 - H135  
   189    266      1 ;    C68 - H140  
   190    193      1 ;    O21 - O23   
   190    261      1 ;    O21 - H115  
   190    262      1 ;    O21 - H120  
   190    267      1 ;    O21 - H145  
   190    268      1 ;    O21 - H150  
   191    194      1 ;    C73 - C83   
   191    263      1 ;    C73 - H125  
   191    264      1 ;    C73 - H130  
   192    195      1 ;    C78 - C88   
   192    269      1 ;    C78 - H155  
   192    270      1 ;    C78 - H160  
   193    196      1 ;    O23 - N7    
   193    265      1 ;    O23 - H135  
   193    266      1 ;    O23 - H140  
   193    271      1 ;    O23 - H165  
   193    272      1 ;    O23 - H170  
   194    197      1 ;    C83 - N9    
   194    199      1 ;    C83 - C93   
   194    267      1 ;    C83 - H145  
   194    268      1 ;    C83 - H150  
   195    198      1 ;    C88 - N11   
   195    200      1 ;    C88 - C98   
   195    273      1 ;    C88 - H175  
   196    269      1 ;     N7 - H155  
   196    270      1 ;     N7 - H160  
   197    271      1 ;     N9 - H165  
   197    272      1 ;     N9 - H170  
   197    273      1 ;     N9 - H175  
   198    273      1 ;    N11 - H175  
   198    274      1 ;    N11 - H180  
   198    275      1 ;    N11 - H185  
   199    271      1 ;    C93 - H165  
   199    272      1 ;    C93 - H170  
   199    274      1 ;    C93 - H180  
   199    275      1 ;    C93 - H185  
   201    224      1 ;    H49 - H164  
   201    225      1 ;    H49 - H169  
   202    214      1 ;    H54 - H114  
   202    215      1 ;    H54 - H119  
   203    209      1 ;    H59 - H89   
   203    210      1 ;    H59 - H94   
   204    206      1 ;    H64 - H74   
   204    207      1 ;    H64 - H79   
   204    208      1 ;    H64 - H84   
   205    206      1 ;    H69 - H74   
   205    207      1 ;    H69 - H79   
   205    208      1 ;    H69 - H84   
   206    232      1 ;    H74 - H197  
   209    211      1 ;    H89 - H99   
   209    212      1 ;    H89 - H104  
   210    211      1 ;    H94 - H99   
   210    212      1 ;    H94 - H104  
   213    214      1 ;   H109 - H114  
   213    215      1 ;   H109 - H119  
   216    218      1 ;   H124 - H134  
   216    219      1 ;   H124 - H139  
   217    218      1 ;   H129 - H134  
   217    219      1 ;   H129 - H139  
   220    222      1 ;   H144 - H154  
   220    223      1 ;   H144 - H159  
   221    222      1 ;   H149 - H154  
   221    223      1 ;   H149 - H159  
   248    249      1 ;    H50 - H55   
   248    250      1 ;    H50 - H60   
   249    251      1 ;    H55 - H65   
   249    252      1 ;    H55 - H70   
   250    251      1 ;    H60 - H65   
   250    252      1 ;    H60 - H70   
   253    255      1 ;    H75 - H85   
   253    256      1 ;    H75 - H90   
   254    255      1 ;    H80 - H85   
   254    256      1 ;    H80 - H90   
   257    259      1 ;    H95 - H105  
   257    260      1 ;    H95 - H110  
   258    259      1 ;   H100 - H105  
   258    260      1 ;   H100 - H110  
   261    263      1 ;   H115 - H125  
   261    264      1 ;   H115 - H130  
   262    263      1 ;   H120 - H125  
   262    264      1 ;   H120 - H130  
   265    267      1 ;   H135 - H145  
   265    268      1 ;   H135 - H150  
   266    267      1 ;   H140 - H145  
   266    268      1 ;   H140 - H150  
   269    271      1 ;   H155 - H165  
   269    272      1 ;   H155 - H170  
   270    271      1 ;   H160 - H165  
   270    272      1 ;   H160 - H170  
   276    282      1 ;    C34 - C49   
   276    288      1 ;    C34 - C79   
   276    303      1 ;    C34 - C131  
   276    306      1 ;    C34 - C137  
   276    307      1 ;    C34 - C139  
   276    362      1 ;    C34 - H198  
   277    282      1 ;    O12 - C49   
   277    284      1 ;    O12 - C59   
   277    306      1 ;    O12 - C137  
   277    307      1 ;    O12 - C139  
   277    334      1 ;    O12 - H66   
   277    335      1 ;    O12 - H71   
   278    283      1 ;    C39 - C54   
   278    285      1 ;    C39 - C64   
   278    333      1 ;    C39 - H61   
   278    337      1 ;    C39 - H81   
   278    338      1 ;    C39 - H86   
   278    369      1 ;    C39 - H212  
   278    370      1 ;    C39 - H214  
   278    371      1 ;    C39 - H216  
   278    372      1 ;    C39 - H218  
   278    373      1 ;    C39 - H220  
   278    374      1 ;    C39 - H222  
   279    294      1 ;     N6 - C106  
   279    296      1 ;     N6 - C112  
   279    297      1 ;     N6 - C115  
   279    311      1 ;     N6 - O13   
   279    381      1 ;     N6 - H67   
   279    382      1 ;     N6 - H72   
   280    284      1 ;    C44 - C59   
   280    286      1 ;    C44 - C69   
   280    288      1 ;    C44 - C79   
   280    303      1 ;    C44 - C131  
   280    334      1 ;    C44 - H66   
   280    335      1 ;    C44 - H71   
   280    339      1 ;    C44 - H91   
   280    340      1 ;    C44 - H96   
   280    362      1 ;    C44 - H198  
   281    294      1 ;    O17 - C106  
   281    296      1 ;    O17 - C112  
   281    297      1 ;    O17 - C115  
   281    309      1 ;    O17 - C35   
   281    378      1 ;    O17 - H52   
   282    287      1 ;    C49 - C74   
   282    292      1 ;    C49 - C99   
   282    332      1 ;    C49 - H56   
   282    336      1 ;    C49 - H76   
   282    337      1 ;    C49 - H81   
   282    338      1 ;    C49 - H86   
   282    341      1 ;    C49 - H101  
   282    342      1 ;    C49 - H106  
   282    359      1 ;    C49 - H190  
   282    360      1 ;    C49 - H193  
   282    361      1 ;    C49 - H196  
   282    369      1 ;    C49 - H212  
   282    370      1 ;    C49 - H214  
   282    371      1 ;    C49 - H216  
   282    372      1 ;    C49 - H218  
   282    373      1 ;    C49 - H220  
   282    374      1 ;    C49 - H222  
   283    286      1 ;    C54 - C69   
   283    289      1 ;    C54 - C84   
   283    291      1 ;    C54 - C94   
   283    302      1 ;    C54 - C129  
   283    306      1 ;    C54 - C137  
   283    307      1 ;    C54 - C139  
   283    334      1 ;    C54 - H66   
   283    335      1 ;    C54 - H71   
   283    339      1 ;    C54 - H91   
   283    340      1 ;    C54 - H96   
   283    344      1 ;    C54 - H116  
   283    345      1 ;    C54 - H121  
   284    285      1 ;    C59 - C64   
   284    287      1 ;    C59 - C74   
   284    292      1 ;    C59 - C99   
   284    332      1 ;    C59 - H56   
   284    333      1 ;    C59 - H61   
   284    336      1 ;    C59 - H76   
   284    359      1 ;    C59 - H190  
   284    360      1 ;    C59 - H193  
   284    361      1 ;    C59 - H196  
   285    288      1 ;    C64 - C79   
   285    289      1 ;    C64 - C84   
   285    302      1 ;    C64 - C129  
   285    303      1 ;    C64 - C131  
   285    306      1 ;    C64 - C137  
   285    307      1 ;    C64 - C139  
   286    290      1 ;    C69 - C89   
   286    292      1 ;    C69 - C99   
   286    293      1 ;    C69 - C103  
   286    305      1 ;    C69 - C135  
   286    332      1 ;    C69 - H56   
   286    333      1 ;    C69 - H61   
   286    356      1 ;    C69 - H176  
   286    357      1 ;    C69 - H181  
   286    358      1 ;    C69 - H186  
   287    291      1 ;    C74 - C94   
   287    294      1 ;    C74 - C106  
   287    296      1 ;    C74 - C112  
   287    303      1 ;    C74 - C131  
   287    339      1 ;    C74 - H91   
   287    340      1 ;    C74 - H96   
   287    344      1 ;    C74 - H116  
   287    345      1 ;    C74 - H121  
   287    346      1 ;    C74 - H126  
   287    347      1 ;    C74 - H131  
   287    366      1 ;    C74 - H206  
   287    367      1 ;    C74 - H208  
   287    368      1 ;    C74 - H210  
   288    290      1 ;    C79 - C89   
   288    293      1 ;    C79 - C103  
   288    305      1 ;    C79 - C135  
   288    333      1 ;    C79 - H61   
   288    337      1 ;    C79 - H81   
   288    338      1 ;    C79 - H86   
   288    341      1 ;    C79 - H101  
   288    342      1 ;    C79 - H106  
   288    343      1 ;    C79 - H111  
   288    356      1 ;    C79 - H176  
   288    357      1 ;    C79 - H181  
   288    358      1 ;    C79 - H186  
   288    359      1 ;    C79 - H190  
   288    360      1 ;    C79 - H193  
   288    361      1 ;    C79 - H196  
   289    292      1 ;    C84 - C99   
   289    295      1 ;    C84 - C109  
   289    300      1 ;    C84 - C124  
   289    331      1 ;    C84 - H51   
   289    332      1 ;    C84 - H56   
   289    341      1 ;    C84 - H101  
   289    342      1 ;    C84 - H106  
   289    343      1 ;    C84 - H111  
   289    348      1 ;    C84 - H136  
   289    349      1 ;    C84 - H141  
   289    356      1 ;    C84 - H176  
   289    357      1 ;    C84 - H181  
   289    358      1 ;    C84 - H186  
   290    294      1 ;    C89 - C106  
   290    297      1 ;    C89 - C115  
   290    299      1 ;    C89 - C121  
   290    301      1 ;    C89 - C127  
   290    302      1 ;    C89 - C129  
   290    344      1 ;    C89 - H116  
   290    345      1 ;    C89 - H121  
   290    346      1 ;    C89 - H126  
   290    347      1 ;    C89 - H131  
   290    354      1 ;    C89 - H166  
   290    355      1 ;    C89 - H171  
   290    366      1 ;    C89 - H206  
   290    367      1 ;    C89 - H208  
   290    368      1 ;    C89 - H210  
   291    293      1 ;    C94 - C103  
   291    295      1 ;    C94 - C109  
   291    300      1 ;    C94 - C124  
   291    305      1 ;    C94 - C135  
   291    331      1 ;    C94 - H51   
   291    332      1 ;    C94 - H56   
   292    296      1 ;    C99 - C112  
   292    302      1 ;    C99 - C129  
   292    303      1 ;    C99 - C131  
   293    296      1 ;   C103 - C112  
   293    297      1 ;   C103 - C115  
   293    301      1 ;   C103 - C127  
   293    302      1 ;   C103 - C129  
   293    366      1 ;   C103 - H206  
   293    367      1 ;   C103 - H208  
   293    368      1 ;   C103 - H210  
   294    298      1 ;   C106 - C118  
   294    300      1 ;   C106 - C124  
   294    305      1 ;   C106 - C135  
   294    331      1 ;   C106 - H51   
   294    350      1 ;   C106 - H146  
   294    351      1 ;   C106 - H151  
   295    299      1 ;   C109 - C121  
   295    309      1 ;   C109 - C35   
   295    346      1 ;   C109 - H126  
   295    347      1 ;   C109 - H131  
   295    352      1 ;   C109 - H156  
   295    353      1 ;   C109 - H161  
   295    354      1 ;   C109 - H166  
   295    355      1 ;   C109 - H171  
   295    378      1 ;   C109 - H52   
   296    298      1 ;   C112 - C118  
   296    304      1 ;   C112 - C133  
   296    305      1 ;   C112 - C135  
   296    308      1 ;   C112 - C141  
   296    343      1 ;   C112 - H111  
   296    348      1 ;   C112 - H136  
   296    349      1 ;   C112 - H141  
   296    350      1 ;   C112 - H146  
   296    351      1 ;   C112 - H151  
   297    300      1 ;   C115 - C124  
   297    304      1 ;   C115 - C133  
   297    308      1 ;   C115 - C141  
   297    331      1 ;   C115 - H51   
   297    348      1 ;   C115 - H136  
   297    349      1 ;   C115 - H141  
   298    301      1 ;   C118 - C127  
   298    354      1 ;   C118 - H166  
   298    355      1 ;   C118 - H171  
   298    363      1 ;   C118 - H200  
   298    364      1 ;   C118 - H202  
   298    365      1 ;   C118 - H204  
   298    375      1 ;   C118 - H224  
   298    376      1 ;   C118 - H226  
   298    377      1 ;   C118 - H228  
   299    331      1 ;   C121 - H51   
   299    350      1 ;   C121 - H146  
   299    351      1 ;   C121 - H151  
   300    301      1 ;   C124 - C127  
   300    352      1 ;   C124 - H156  
   300    353      1 ;   C124 - H161  
   300    363      1 ;   C124 - H200  
   300    364      1 ;   C124 - H202  
   300    365      1 ;   C124 - H204  
   300    375      1 ;   C124 - H224  
   300    376      1 ;   C124 - H226  
   300    377      1 ;   C124 - H228  
   301    310      1 ;   C127 - C40   
   301    331      1 ;   C127 - H51   
   301    348      1 ;   C127 - H136  
   301    349      1 ;   C127 - H141  
   301    350      1 ;   C127 - H146  
   301    351      1 ;   C127 - H151  
   301    379      1 ;   C127 - H57   
   301    380      1 ;   C127 - H62   
   302    305      1 ;   C129 - C135  
   302    332      1 ;   C129 - H56   
   302    341      1 ;   C129 - H101  
   302    342      1 ;   C129 - H106  
   303    332      1 ;   C131 - H56   
   303    333      1 ;   C131 - H61   
   303    337      1 ;   C131 - H81   
   303    338      1 ;   C131 - H86   
   304    352      1 ;   C133 - H156  
   304    353      1 ;   C133 - H161  
   304    354      1 ;   C133 - H166  
   304    355      1 ;   C133 - H171  
   304    375      1 ;   C133 - H224  
   304    376      1 ;   C133 - H226  
   304    377      1 ;   C133 - H228  
   305    346      1 ;   C135 - H126  
   305    347      1 ;   C135 - H131  
   306    333      1 ;   C137 - H61   
   306    336      1 ;   C137 - H76   
   306    372      1 ;   C137 - H218  
   306    373      1 ;   C137 - H220  
   306    374      1 ;   C137 - H222  
   307    333      1 ;   C139 - H61   
   307    336      1 ;   C139 - H76   
   307    369      1 ;   C139 - H212  
   307    370      1 ;   C139 - H214  
   307    371      1 ;   C139 - H216  
   308    352      1 ;   C141 - H156  
   308    353      1 ;   C141 - H161  
   308    354      1 ;   C141 - H166  
   308    355      1 ;   C141 - H171  
   308    363      1 ;   C141 - H200  
   308    364      1 ;   C141 - H202  
   308    365      1 ;   C141 - H204  
   309    312      1 ;    C35 - C45   
   310    313      1 ;    C40 - C50   
   310    378      1 ;    C40 - H52   
   310    383      1 ;    C40 - H77   
   310    384      1 ;    C40 - H82   
   311    314      1 ;    O13 - O20   
   311    379      1 ;    O13 - H57   
   311    380      1 ;    O13 - H62   
   311    385      1 ;    O13 - H87   
   311    386      1 ;    O13 - H92   
   312    315      1 ;    C45 - C55   
   312    381      1 ;    C45 - H67   
   312    382      1 ;    C45 - H72   
   313    316      1 ;    C50 - C60   
   313    387      1 ;    C50 - H97   
   313    388      1 ;    C50 - H102  
   314    317      1 ;    O20 - O18   
   314    383      1 ;    O20 - H77   
   314    384      1 ;    O20 - H82   
   314    389      1 ;    O20 - H107  
   314    390      1 ;    O20 - H112  
   315    318      1 ;    C55 - C65   
   315    385      1 ;    C55 - H87   
   315    386      1 ;    C55 - H92   
   316    319      1 ;    C60 - C70   
   316    391      1 ;    C60 - H117  
   316    392      1 ;    C60 - H122  
   317    320      1 ;    O18 - O22   
   317    387      1 ;    O18 - H97   
   317    388      1 ;    O18 - H102  
   317    393      1 ;    O18 - H127  
   317    394      1 ;    O18 - H132  
   318    321      1 ;    C65 - C75   
   318    389      1 ;    C65 - H107  
   318    390      1 ;    C65 - H112  
   319    322      1 ;    C70 - C80   
   319    395      1 ;    C70 - H137  
   319    396      1 ;    C70 - H142  
   320    323      1 ;    O22 - O24   
   320    391      1 ;    O22 - H117  
   320    392      1 ;    O22 - H122  
   320    397      1 ;    O22 - H147  
   320    398      1 ;    O22 - H152  
   321    324      1 ;    C75 - C85   
   321    393      1 ;    C75 - H127  
   321    394      1 ;    C75 - H132  
   322    325      1 ;    C80 - C90   
   322    399      1 ;    C80 - H157  
   322    400      1 ;    C80 - H162  
   323    326      1 ;    O24 - N8    
   323    395      1 ;    O24 - H137  
   323    396      1 ;    O24 - H142  
   323    401      1 ;    O24 - H167  
   323    402      1 ;    O24 - H172  
   324    327      1 ;    C85 - N10   
   324    330      1 ;    C85 - C100  
   324    397      1 ;    C85 - H147  
   324    398      1 ;    C85 - H152  
   325    328      1 ;    C90 - N12   
   325    329      1 ;    C90 - C95   
   325    403      1 ;    C90 - H177  
   326    399      1 ;     N8 - H157  
   326    400      1 ;     N8 - H162  
   327    401      1 ;    N10 - H167  
   327    402      1 ;    N10 - H172  
   327    403      1 ;    N10 - H177  
   328    403      1 ;    N12 - H177  
   328    404      1 ;    N12 - H182  
   328    405      1 ;    N12 - H187  
   330    401      1 ;   C100 - H167  
   330    402      1 ;   C100 - H172  
   330    404      1 ;   C100 - H182  
   330    405      1 ;   C100 - H187  
   331    354      1 ;    H51 - H166  
   331    355      1 ;    H51 - H171  
   332    344      1 ;    H56 - H116  
   332    345      1 ;    H56 - H121  
   333    339      1 ;    H61 - H91   
   333    340      1 ;    H61 - H96   
   334    336      1 ;    H66 - H76   
   334    337      1 ;    H66 - H81   
   334    338      1 ;    H66 - H86   
   335    336      1 ;    H71 - H76   
   335    337      1 ;    H71 - H81   
   335    338      1 ;    H71 - H86   
   336    362      1 ;    H76 - H198  
   339    341      1 ;    H91 - H101  
   339    342      1 ;    H91 - H106  
   340    341      1 ;    H96 - H101  
   340    342      1 ;    H96 - H106  
   343    344      1 ;   H111 - H116  
   343    345      1 ;   H111 - H121  
   346    348      1 ;   H126 - H136  
   346    349      1 ;   H126 - H141  
   347    348      1 ;   H131 - H136  
   347    349      1 ;   H131 - H141  
   350    352      1 ;   H146 - H156  
   350    353      1 ;   H146 - H161  
   351    352      1 ;   H151 - H156  
   351    353      1 ;   H151 - H161  
   378    379      1 ;    H52 - H57   
   378    380      1 ;    H52 - H62   
   379    381      1 ;    H57 - H67   
   379    382      1 ;    H57 - H72   
   380    381      1 ;    H62 - H67   
   380    382      1 ;    H62 - H72   
   383    385      1 ;    H77 - H87   
   383    386      1 ;    H77 - H92   
   384    385      1 ;    H82 - H87   
   384    386      1 ;    H82 - H92   
   387    389      1 ;    H97 - H107  
   387    390      1 ;    H97 - H112  
   388    389      1 ;   H102 - H107  
   388    390      1 ;   H102 - H112  
   391    393      1 ;   H117 - H127  
   391    394      1 ;   H117 - H132  
   392    393      1 ;   H122 - H127  
   392    394      1 ;   H122 - H132  
   395    397      1 ;   H137 - H147  
   395    398      1 ;   H137 - H152  
   396    397      1 ;   H142 - H147  
   396    398      1 ;   H142 - H152  
   399    401      1 ;   H157 - H167  
   399    402      1 ;   H157 - H172  
   400    401      1 ;   H162 - H167  
   400    402      1 ;   H162 - H172  

[ angles ]
;   ai     aj     ak    funct   theta         cth
     1      3      2      1    1.1019e+02    5.6484e+02 ;     C1 - C2     - O1    
     1      3      5      1    1.1151e+02    5.2635e+02 ;     C1 - C2     - C3    
     1      3     73      1    1.0956e+02    3.8828e+02 ;     C1 - C2     - H6    
     1      9      8      1    1.1151e+02    5.2635e+02 ;     C1 - C6     - C5    
     1      9     74      1    1.0980e+02    3.8744e+02 ;     C1 - C6     - H7    
     1      9     75      1    1.0980e+02    3.8744e+02 ;     C1 - C6     - H8    
     2      3      5      1    1.1019e+02    5.6484e+02 ;     O1 - C2     - C3    
     2      3     73      1    1.1026e+02    4.2593e+02 ;     O1 - C2     - H6    
     3      1      9      1    1.1151e+02    5.2635e+02 ;     C2 - C1     - C6    
     3      1     71      1    1.0980e+02    3.8744e+02 ;     C2 - C1     - H4    
     3      1     72      1    1.0980e+02    3.8744e+02 ;     C2 - C1     - H5    
     3      2     99      1    1.0726e+02    3.9664e+02 ;     C2 - O1     - H32   
     3      5      7      1    1.1151e+02    5.2635e+02 ;     C2 - C3     - C4    
     3      5     31      1    1.1151e+02    5.2635e+02 ;     C2 - C3     - C28   
     3      5     32      1    1.1151e+02    5.2635e+02 ;     C2 - C3     - C29   
     4     26      6      1    1.2305e+02    6.2091e+02 ;     N1 - C23    - O3    
     4     26     20      1    1.1518e+02    5.5898e+02 ;     N1 - C23    - C17   
     4     34     35      1    1.1161e+02    5.5145e+02 ;     N1 - C31    - C36   
     4     34    116      1    1.0888e+02    4.1673e+02 ;     N1 - C31    - H53   
     4     34    117      1    1.0888e+02    4.1673e+02 ;     N1 - C31    - H58   
     5      3     73      1    1.0956e+02    3.8828e+02 ;     C3 - C2     - H6    
     5      7      8      1    1.1151e+02    5.2635e+02 ;     C3 - C4     - C5    
     5      7     10      1    1.1151e+02    5.2635e+02 ;     C3 - C4     - C7    
     5      7     70      1    1.0980e+02    3.8744e+02 ;     C3 - C4     - H3    
     5     31    106      1    1.0980e+02    3.8744e+02 ;     C3 - C28    - H39   
     5     31    107      1    1.0980e+02    3.8744e+02 ;     C3 - C28    - H40   
     5     31    108      1    1.0980e+02    3.8744e+02 ;     C3 - C28    - H41   
     5     32    109      1    1.0980e+02    3.8744e+02 ;     C3 - C29    - H42   
     5     32    110      1    1.0980e+02    3.8744e+02 ;     C3 - C29    - H43   
     5     32    111      1    1.0980e+02    3.8744e+02 ;     C3 - C29    - H44   
     6     26     20      1    1.2320e+02    5.6400e+02 ;     O3 - C23    - C17   
     7      5     31      1    1.1151e+02    5.2635e+02 ;     C4 - C3     - C28   
     7      5     32      1    1.1151e+02    5.2635e+02 ;     C4 - C3     - C29   
     7      8      9      1    1.1151e+02    5.2635e+02 ;     C4 - C5     - C6    
     7      8     13      1    1.1151e+02    5.2635e+02 ;     C4 - C5     - C10   
     7      8     28      1    1.1151e+02    5.2635e+02 ;     C4 - C5     - C25   
     7     10     11      1    1.1151e+02    5.2635e+02 ;     C4 - C7     - C8    
     7     10     76      1    1.0980e+02    3.8744e+02 ;     C4 - C7     - H9    
     7     10     77      1    1.0980e+02    3.8744e+02 ;     C4 - C7     - H10   
     8      7     10      1    1.1151e+02    5.2635e+02 ;     C5 - C4     - C7    
     8      7     70      1    1.0980e+02    3.8744e+02 ;     C5 - C4     - H3    
     8      9     74      1    1.0980e+02    3.8744e+02 ;     C5 - C6     - H7    
     8      9     75      1    1.0980e+02    3.8744e+02 ;     C5 - C6     - H8    
     8     13     12      1    1.1151e+02    5.2635e+02 ;     C5 - C10    - C9    
     8     13     17      1    1.1151e+02    5.2635e+02 ;     C5 - C10    - C14   
     8     13     69      1    1.0980e+02    3.8744e+02 ;     C5 - C10    - H2    
     8     28     96      1    1.0980e+02    3.8744e+02 ;     C5 - C25    - H29   
     8     28     97      1    1.0980e+02    3.8744e+02 ;     C5 - C25    - H30   
     8     28     98      1    1.0980e+02    3.8744e+02 ;     C5 - C25    - H31   
     9      1     71      1    1.0980e+02    3.8744e+02 ;     C6 - C1     - H4    
     9      1     72      1    1.0980e+02    3.8744e+02 ;     C6 - C1     - H5    
     9      8     13      1    1.1151e+02    5.2635e+02 ;     C6 - C5     - C10   
     9      8     28      1    1.1151e+02    5.2635e+02 ;     C6 - C5     - C25   
    10      7     70      1    1.0980e+02    3.8744e+02 ;     C7 - C4     - H3    
    10     11     12      1    1.1151e+02    5.2635e+02 ;     C7 - C8     - C9    
    10     11     78      1    1.0980e+02    3.8744e+02 ;     C7 - C8     - H11   
    10     11     79      1    1.0980e+02    3.8744e+02 ;     C7 - C8     - H12   
    11     10     76      1    1.0980e+02    3.8744e+02 ;     C8 - C7     - H9    
    11     10     77      1    1.0980e+02    3.8744e+02 ;     C8 - C7     - H10   
    11     12     13      1    1.1151e+02    5.2635e+02 ;     C8 - C9     - C10   
    11     12     14      1    1.1151e+02    5.2635e+02 ;     C8 - C9     - C11   
    11     12     27      1    1.1151e+02    5.2635e+02 ;     C8 - C9     - C24   
    12     11     78      1    1.0980e+02    3.8744e+02 ;     C9 - C8     - H11   
    12     11     79      1    1.0980e+02    3.8744e+02 ;     C9 - C8     - H12   
    12     13     17      1    1.1151e+02    5.2635e+02 ;     C9 - C10    - C14   
    12     13     69      1    1.0980e+02    3.8744e+02 ;     C9 - C10    - H2    
    12     14     15      1    1.1156e+02    5.3053e+02 ;     C9 - C11    - C12   
    12     14     18      1    1.1151e+02    5.2635e+02 ;     C9 - C11    - C15   
    12     14     30      1    1.1151e+02    5.2635e+02 ;     C9 - C11    - C27   
    12     27     93      1    1.0980e+02    3.8744e+02 ;     C9 - C24    - H26   
    12     27     94      1    1.0980e+02    3.8744e+02 ;     C9 - C24    - H27   
    12     27     95      1    1.0980e+02    3.8744e+02 ;     C9 - C24    - H28   
    13      8     28      1    1.1151e+02    5.2635e+02 ;    C10 - C5     - C25   
    13     12     14      1    1.1151e+02    5.2635e+02 ;    C10 - C9     - C11   
    13     12     27      1    1.1151e+02    5.2635e+02 ;    C10 - C9     - C24   
    13     17     16      1    1.1156e+02    5.3053e+02 ;    C10 - C14    - C13   
    13     17     81      1    1.0980e+02    3.8744e+02 ;    C10 - C14    - H14   
    13     17     82      1    1.0980e+02    3.8744e+02 ;    C10 - C14    - H15   
    14     12     27      1    1.1151e+02    5.2635e+02 ;    C11 - C9     - C24   
    14     15     16      1    1.2363e+02    5.3639e+02 ;    C11 - C12    - C13   
    14     15     21      1    1.1565e+02    5.2635e+02 ;    C11 - C12    - C18   
    14     18     19      1    1.1151e+02    5.2635e+02 ;    C11 - C15    - C16   
    14     18     83      1    1.0980e+02    3.8744e+02 ;    C11 - C15    - H16   
    14     18     84      1    1.0980e+02    3.8744e+02 ;    C11 - C15    - H17   
    14     30    103      1    1.0980e+02    3.8744e+02 ;    C11 - C27    - H36   
    14     30    104      1    1.0980e+02    3.8744e+02 ;    C11 - C27    - H37   
    14     30    105      1    1.0980e+02    3.8744e+02 ;    C11 - C27    - H38   
    15     14     18      1    1.1156e+02    5.3053e+02 ;    C12 - C11    - C15   
    15     14     30      1    1.1156e+02    5.3053e+02 ;    C12 - C11    - C27   
    15     16     17      1    1.2363e+02    5.3639e+02 ;    C12 - C13    - C14   
    15     16     80      1    1.2043e+02    4.1756e+02 ;    C12 - C13    - H13   
    15     21     20      1    1.1156e+02    5.3053e+02 ;    C12 - C18    - C17   
    15     21     25      1    1.1156e+02    5.3053e+02 ;    C12 - C18    - C22   
    15     21     68      1    1.1036e+02    3.9330e+02 ;    C12 - C18    - H1    
    16     15     21      1    1.2363e+02    5.3639e+02 ;    C13 - C12    - C18   
    16     17     81      1    1.1036e+02    3.9330e+02 ;    C13 - C14    - H14   
    16     17     82      1    1.1036e+02    3.9330e+02 ;    C13 - C14    - H15   
    17     13     69      1    1.0980e+02    3.8744e+02 ;    C14 - C10    - H2    
    17     16     80      1    1.1568e+02    3.8409e+02 ;    C14 - C13    - H13   
    18     14     30      1    1.1151e+02    5.2635e+02 ;    C15 - C11    - C27   
    18     19     20      1    1.1151e+02    5.2635e+02 ;    C15 - C16    - C17   
    18     19     85      1    1.0980e+02    3.8744e+02 ;    C15 - C16    - H18   
    18     19     86      1    1.0980e+02    3.8744e+02 ;    C15 - C16    - H19   
    19     18     83      1    1.0980e+02    3.8744e+02 ;    C16 - C15    - H16   
    19     18     84      1    1.0980e+02    3.8744e+02 ;    C16 - C15    - H17   
    19     20     21      1    1.1151e+02    5.2635e+02 ;    C16 - C17    - C18   
    19     20     22      1    1.1151e+02    5.2635e+02 ;    C16 - C17    - C19   
    19     20     26      1    1.1104e+02    5.2969e+02 ;    C16 - C17    - C23   
    20     19     85      1    1.0980e+02    3.8744e+02 ;    C17 - C16    - H18   
    20     19     86      1    1.0980e+02    3.8744e+02 ;    C17 - C16    - H19   
    20     21     25      1    1.1151e+02    5.2635e+02 ;    C17 - C18    - C22   
    20     21     68      1    1.0980e+02    3.8744e+02 ;    C17 - C18    - H1    
    20     22     23      1    1.1151e+02    5.2635e+02 ;    C17 - C19    - C20   
    20     22     87      1    1.0980e+02    3.8744e+02 ;    C17 - C19    - H20   
    20     22     88      1    1.0980e+02    3.8744e+02 ;    C17 - C19    - H21   
    21     20     22      1    1.1151e+02    5.2635e+02 ;    C18 - C17    - C19   
    21     20     26      1    1.1104e+02    5.2969e+02 ;    C18 - C17    - C23   
    21     25     24      1    1.1151e+02    5.2635e+02 ;    C18 - C22    - C21   
    21     25     91      1    1.0980e+02    3.8744e+02 ;    C18 - C22    - H24   
    21     25     92      1    1.0980e+02    3.8744e+02 ;    C18 - C22    - H25   
    22     20     26      1    1.1104e+02    5.2969e+02 ;    C19 - C17    - C23   
    22     23     24      1    1.1151e+02    5.2635e+02 ;    C19 - C20    - C21   
    22     23     89      1    1.0980e+02    3.8744e+02 ;    C19 - C20    - H22   
    22     23     90      1    1.0980e+02    3.8744e+02 ;    C19 - C20    - H23   
    23     22     87      1    1.0980e+02    3.8744e+02 ;    C20 - C19    - H20   
    23     22     88      1    1.0980e+02    3.8744e+02 ;    C20 - C19    - H21   
    23     24     25      1    1.1151e+02    5.2635e+02 ;    C20 - C21    - C22   
    23     24     29      1    1.1151e+02    5.2635e+02 ;    C20 - C21    - C26   
    23     24     33      1    1.1151e+02    5.2635e+02 ;    C20 - C21    - C30   
    24     23     89      1    1.0980e+02    3.8744e+02 ;    C21 - C20    - H22   
    24     23     90      1    1.0980e+02    3.8744e+02 ;    C21 - C20    - H23   
    24     25     91      1    1.0980e+02    3.8744e+02 ;    C21 - C22    - H24   
    24     25     92      1    1.0980e+02    3.8744e+02 ;    C21 - C22    - H25   
    24     29    100      1    1.0980e+02    3.8744e+02 ;    C21 - C26    - H33   
    24     29    101      1    1.0980e+02    3.8744e+02 ;    C21 - C26    - H34   
    24     29    102      1    1.0980e+02    3.8744e+02 ;    C21 - C26    - H35   
    24     33    112      1    1.0980e+02    3.8744e+02 ;    C21 - C30    - H45   
    24     33    113      1    1.0980e+02    3.8744e+02 ;    C21 - C30    - H46   
    24     33    114      1    1.0980e+02    3.8744e+02 ;    C21 - C30    - H47   
    25     21     68      1    1.0980e+02    3.8744e+02 ;    C22 - C18    - H1    
    25     24     29      1    1.1151e+02    5.2635e+02 ;    C22 - C21    - C26   
    25     24     33      1    1.1151e+02    5.2635e+02 ;    C22 - C21    - C30   
    26      4     34      1    1.2069e+02    5.3053e+02 ;    C23 - N1     - C31   
    26      4    115      1    1.1755e+02    4.0417e+02 ;    C23 - N1     - H48   
    29     24     33      1    1.1151e+02    5.2635e+02 ;    C26 - C21    - C30   
    31      5     32      1    1.1151e+02    5.2635e+02 ;    C28 - C3     - C29   
    34      4    115      1    1.1768e+02    3.8325e+02 ;    C31 - N1     - H48   
    34     35     36      1    1.0797e+02    5.6902e+02 ;    C31 - C36    - O9    
    34     35    118      1    1.0956e+02    3.8828e+02 ;    C31 - C36    - H63   
    34     35    119      1    1.0956e+02    3.8828e+02 ;    C31 - C36    - H68   
    35     34    116      1    1.0956e+02    3.8828e+02 ;    C36 - C31    - H53   
    35     34    117      1    1.0956e+02    3.8828e+02 ;    C36 - C31    - H58   
    35     36     37      1    1.1248e+02    5.2467e+02 ;    C36 - O9     - C41   
    36     35    118      1    1.0978e+02    4.2509e+02 ;     O9 - C36    - H63   
    36     35    119      1    1.0978e+02    4.2509e+02 ;     O9 - C36    - H68   
    36     37     38      1    1.0797e+02    5.6902e+02 ;     O9 - C41    - C46   
    36     37    120      1    1.0978e+02    4.2509e+02 ;     O9 - C41    - H73   
    36     37    121      1    1.0978e+02    4.2509e+02 ;     O9 - C41    - H78   
    37     38     39      1    1.0797e+02    5.6902e+02 ;    C41 - C46    - O2    
    37     38    122      1    1.0956e+02    3.8828e+02 ;    C41 - C46    - H83   
    37     38    123      1    1.0956e+02    3.8828e+02 ;    C41 - C46    - H88   
    38     37    120      1    1.0956e+02    3.8828e+02 ;    C46 - C41    - H73   
    38     37    121      1    1.0956e+02    3.8828e+02 ;    C46 - C41    - H78   
    38     39     40      1    1.1248e+02    5.2467e+02 ;    C46 - O2     - C51   
    39     38    122      1    1.0978e+02    4.2509e+02 ;     O2 - C46    - H83   
    39     38    123      1    1.0978e+02    4.2509e+02 ;     O2 - C46    - H88   
    39     40     41      1    1.0797e+02    5.6902e+02 ;     O2 - C51    - C56   
    39     40    124      1    1.0978e+02    4.2509e+02 ;     O2 - C51    - H93   
    39     40    125      1    1.0978e+02    4.2509e+02 ;     O2 - C51    - H98   
    40     41     42      1    1.0797e+02    5.6902e+02 ;    C51 - C56    - O14   
    40     41    126      1    1.0956e+02    3.8828e+02 ;    C51 - C56    - H103  
    40     41    127      1    1.0956e+02    3.8828e+02 ;    C51 - C56    - H108  
    41     40    124      1    1.0956e+02    3.8828e+02 ;    C56 - C51    - H93   
    41     40    125      1    1.0956e+02    3.8828e+02 ;    C56 - C51    - H98   
    41     42     43      1    1.1248e+02    5.2467e+02 ;    C56 - O14    - C61   
    42     41    126      1    1.0978e+02    4.2509e+02 ;    O14 - C56    - H103  
    42     41    127      1    1.0978e+02    4.2509e+02 ;    O14 - C56    - H108  
    42     43     44      1    1.0797e+02    5.6902e+02 ;    O14 - C61    - C66   
    42     43    128      1    1.0978e+02    4.2509e+02 ;    O14 - C61    - H113  
    42     43    129      1    1.0978e+02    4.2509e+02 ;    O14 - C61    - H118  
    43     44     45      1    1.0797e+02    5.6902e+02 ;    C61 - C66    - O4    
    43     44    130      1    1.0956e+02    3.8828e+02 ;    C61 - C66    - H123  
    43     44    131      1    1.0956e+02    3.8828e+02 ;    C61 - C66    - H128  
    44     43    128      1    1.0956e+02    3.8828e+02 ;    C66 - C61    - H113  
    44     43    129      1    1.0956e+02    3.8828e+02 ;    C66 - C61    - H118  
    44     45     46      1    1.1248e+02    5.2467e+02 ;    C66 - O4     - C71   
    45     44    130      1    1.0978e+02    4.2509e+02 ;     O4 - C66    - H123  
    45     44    131      1    1.0978e+02    4.2509e+02 ;     O4 - C66    - H128  
    45     46     47      1    1.0797e+02    5.6902e+02 ;     O4 - C71    - C76   
    45     46    132      1    1.0978e+02    4.2509e+02 ;     O4 - C71    - H133  
    45     46    133      1    1.0978e+02    4.2509e+02 ;     O4 - C71    - H138  
    46     47     48      1    1.0797e+02    5.6902e+02 ;    C71 - C76    - O5    
    46     47    134      1    1.0956e+02    3.8828e+02 ;    C71 - C76    - H143  
    46     47    135      1    1.0956e+02    3.8828e+02 ;    C71 - C76    - H148  
    47     46    132      1    1.0956e+02    3.8828e+02 ;    C76 - C71    - H133  
    47     46    133      1    1.0956e+02    3.8828e+02 ;    C76 - C71    - H138  
    47     48     49      1    1.1248e+02    5.2467e+02 ;    C76 - O5     - C81   
    48     47    134      1    1.0978e+02    4.2509e+02 ;     O5 - C76    - H143  
    48     47    135      1    1.0978e+02    4.2509e+02 ;     O5 - C76    - H148  
    48     49     50      1    1.0797e+02    5.6902e+02 ;     O5 - C81    - C86   
    48     49    136      1    1.0978e+02    4.2509e+02 ;     O5 - C81    - H153  
    48     49    137      1    1.0978e+02    4.2509e+02 ;     O5 - C81    - H158  
    49     50     51      1    1.1288e+02    5.4810e+02 ;    C81 - C86    - N2    
    49     50    138      1    1.0956e+02    3.8828e+02 ;    C81 - C86    - H163  
    49     50    139      1    1.0956e+02    3.8828e+02 ;    C81 - C86    - H168  
    50     49    136      1    1.0956e+02    3.8828e+02 ;    C86 - C81    - H153  
    50     49    137      1    1.0956e+02    3.8828e+02 ;    C86 - C81    - H158  
    50     51     52      1    1.2018e+02    5.4810e+02 ;    C86 - N2     - N3    
    50     51     54      1    1.2646e+02    5.1798e+02 ;    C86 - N2     - C91   
    51     50    138      1    1.0878e+02    4.1673e+02 ;     N2 - C86    - H163  
    51     50    139      1    1.0878e+02    4.1673e+02 ;     N2 - C86    - H168  
    51     52     53      1    1.0624e+02    6.3597e+02 ;     N2 - N3     - N4    
    51     54     55      1    1.0699e+02    6.1421e+02 ;     N2 - C91    - C96   
    51     54    140      1    1.2053e+02    4.1673e+02 ;     N2 - C91    - H173  
    52     51     54      1    1.1236e+02    5.8576e+02 ;     N3 - N2     - C91   
    52     53     55      1    1.0862e+02    6.1003e+02 ;     N3 - N4     - C96   
    53     55     54      1    1.1165e+02    6.0417e+02 ;     N4 - C96    - C91   
    53     55     56      1    1.2095e+02    5.5229e+02 ;     N4 - C96    - C101  
    54     55     56      1    1.1945e+02    5.4141e+02 ;    C91 - C96    - C101  
    55     54    140      1    1.2848e+02    3.9581e+02 ;    C96 - C91    - H173  
    55     56     57      1    1.0890e+02    5.7404e+02 ;    C96 - C101   - O6    
    55     56    141      1    1.0964e+02    3.9664e+02 ;    C96 - C101   - H178  
    55     56    142      1    1.0964e+02    3.9664e+02 ;    C96 - C101   - H183  
    56     57     58      1    1.1796e+02    5.2300e+02 ;   C101 - O6     - C104  
    57     56    141      1    1.0978e+02    4.2509e+02 ;     O6 - C101   - H178  
    57     56    142      1    1.0978e+02    4.2509e+02 ;     O6 - C101   - H183  
    57     58     59      1    1.1920e+02    5.8241e+02 ;     O6 - C104   - C107  
    57     58     60      1    1.1920e+02    5.8241e+02 ;     O6 - C104   - C110  
    58     59     63      1    1.2002e+02    5.5731e+02 ;   C104 - C107   - C119  
    58     59    143      1    1.1988e+02    4.0334e+02 ;   C104 - C107   - H188  
    58     60     61      1    1.2002e+02    5.5731e+02 ;   C104 - C110   - C113  
    58     60    144      1    1.1988e+02    4.0334e+02 ;   C104 - C110   - H191  
    59     58     60      1    1.2002e+02    5.5731e+02 ;   C107 - C104   - C110  
    59     63     62      1    1.2002e+02    5.5731e+02 ;   C107 - C119   - C116  
    59     63     65      1    1.1920e+02    5.8241e+02 ;   C107 - C119   - O8    
    60     61     62      1    1.2002e+02    5.5731e+02 ;   C110 - C113   - C116  
    60     61     64      1    1.1920e+02    5.8241e+02 ;   C110 - C113   - O7    
    61     60    144      1    1.1988e+02    4.0334e+02 ;   C113 - C110   - H191  
    61     62     63      1    1.2002e+02    5.5731e+02 ;   C113 - C116   - C119  
    61     62    145      1    1.1988e+02    4.0334e+02 ;   C113 - C116   - H194  
    61     64     67      1    1.1796e+02    5.2300e+02 ;   C113 - O7     - C125  
    62     61     64      1    1.1920e+02    5.8241e+02 ;   C116 - C113   - O7    
    62     63     65      1    1.1920e+02    5.8241e+02 ;   C116 - C119   - O8    
    63     59    143      1    1.1988e+02    4.0334e+02 ;   C119 - C107   - H188  
    63     62    145      1    1.1988e+02    4.0334e+02 ;   C119 - C116   - H194  
    63     65     66      1    1.1796e+02    5.2300e+02 ;   C119 - O8     - C122  
    64     67    329      1    1.0890e+02    5.7404e+02 ;     O7 - C125   - C95   
    64     67    404      1    1.0978e+02    4.2509e+02 ;     O7 - C125   - H182  
    64     67    405      1    1.0978e+02    4.2509e+02 ;     O7 - C125   - H187  
    65     66    200      1    1.0890e+02    5.7404e+02 ;     O8 - C122   - C98   
    65     66    274      1    1.0978e+02    4.2509e+02 ;     O8 - C122   - H180  
    65     66    275      1    1.0978e+02    4.2509e+02 ;     O8 - C122   - H185  
    66    200    198      1    1.2095e+02    5.5229e+02 ;   C122 - C98    - N11   
    66    200    199      1    1.1945e+02    5.4141e+02 ;   C122 - C98    - C93   
    67    329    328      1    1.2095e+02    5.5229e+02 ;   C125 - C95    - N12   
    67    329    330      1    1.1945e+02    5.4141e+02 ;   C125 - C95    - C100  
    71      1     72      1    1.0758e+02    3.2970e+02 ;     H4 - C1     - H5    
    74      9     75      1    1.0758e+02    3.2970e+02 ;     H7 - C6     - H8    
    76     10     77      1    1.0758e+02    3.2970e+02 ;     H9 - C7     - H10   
    78     11     79      1    1.0758e+02    3.2970e+02 ;    H11 - C8     - H12   
    81     17     82      1    1.0758e+02    3.2970e+02 ;    H14 - C14    - H15   
    83     18     84      1    1.0758e+02    3.2970e+02 ;    H16 - C15    - H17   
    85     19     86      1    1.0758e+02    3.2970e+02 ;    H18 - C16    - H19   
    87     22     88      1    1.0758e+02    3.2970e+02 ;    H20 - C19    - H21   
    89     23     90      1    1.0758e+02    3.2970e+02 ;    H22 - C20    - H23   
    91     25     92      1    1.0758e+02    3.2970e+02 ;    H24 - C22    - H25   
    93     27     94      1    1.0758e+02    3.2970e+02 ;    H26 - C24    - H27   
    93     27     95      1    1.0758e+02    3.2970e+02 ;    H26 - C24    - H28   
    94     27     95      1    1.0758e+02    3.2970e+02 ;    H27 - C24    - H28   
    96     28     97      1    1.0758e+02    3.2970e+02 ;    H29 - C25    - H30   
    96     28     98      1    1.0758e+02    3.2970e+02 ;    H29 - C25    - H31   
    97     28     98      1    1.0758e+02    3.2970e+02 ;    H30 - C25    - H31   
   100     29    101      1    1.0758e+02    3.2970e+02 ;    H33 - C26    - H34   
   100     29    102      1    1.0758e+02    3.2970e+02 ;    H33 - C26    - H35   
   101     29    102      1    1.0758e+02    3.2970e+02 ;    H34 - C26    - H35   
   103     30    104      1    1.0758e+02    3.2970e+02 ;    H36 - C27    - H37   
   103     30    105      1    1.0758e+02    3.2970e+02 ;    H36 - C27    - H38   
   104     30    105      1    1.0758e+02    3.2970e+02 ;    H37 - C27    - H38   
   106     31    107      1    1.0758e+02    3.2970e+02 ;    H39 - C28    - H40   
   106     31    108      1    1.0758e+02    3.2970e+02 ;    H39 - C28    - H41   
   107     31    108      1    1.0758e+02    3.2970e+02 ;    H40 - C28    - H41   
   109     32    110      1    1.0758e+02    3.2970e+02 ;    H42 - C29    - H43   
   109     32    111      1    1.0758e+02    3.2970e+02 ;    H42 - C29    - H44   
   110     32    111      1    1.0758e+02    3.2970e+02 ;    H43 - C29    - H44   
   112     33    113      1    1.0758e+02    3.2970e+02 ;    H45 - C30    - H46   
   112     33    114      1    1.0758e+02    3.2970e+02 ;    H45 - C30    - H47   
   113     33    114      1    1.0758e+02    3.2970e+02 ;    H46 - C30    - H47   
   116     34    117      1    1.0846e+02    3.2803e+02 ;    H53 - C31    - H58   
   118     35    119      1    1.0846e+02    3.2803e+02 ;    H63 - C36    - H68   
   120     37    121      1    1.0846e+02    3.2803e+02 ;    H73 - C41    - H78   
   122     38    123      1    1.0846e+02    3.2803e+02 ;    H83 - C46    - H88   
   124     40    125      1    1.0846e+02    3.2803e+02 ;    H93 - C51    - H98   
   126     41    127      1    1.0846e+02    3.2803e+02 ;   H103 - C56    - H108  
   128     43    129      1    1.0846e+02    3.2803e+02 ;   H113 - C61    - H118  
   130     44    131      1    1.0846e+02    3.2803e+02 ;   H123 - C66    - H128  
   132     46    133      1    1.0846e+02    3.2803e+02 ;   H133 - C71    - H138  
   134     47    135      1    1.0846e+02    3.2803e+02 ;   H143 - C76    - H148  
   136     49    137      1    1.0846e+02    3.2803e+02 ;   H153 - C81    - H158  
   138     50    139      1    1.0846e+02    3.2803e+02 ;   H163 - C86    - H168  
   141     56    142      1    1.0846e+02    3.2803e+02 ;   H178 - C101   - H183  
   146    148    147      1    1.1019e+02    5.6484e+02 ;    C32 - C37    - O10   
   146    148    150      1    1.1151e+02    5.2635e+02 ;    C32 - C37    - C42   
   146    148    206      1    1.0956e+02    3.8828e+02 ;    C32 - C37    - H74   
   146    154    153      1    1.1151e+02    5.2635e+02 ;    C32 - C57    - C52   
   146    154    207      1    1.0980e+02    3.8744e+02 ;    C32 - C57    - H79   
   146    154    208      1    1.0980e+02    3.8744e+02 ;    C32 - C57    - H84   
   147    148    150      1    1.1019e+02    5.6484e+02 ;    O10 - C37    - C42   
   147    148    206      1    1.1026e+02    4.2593e+02 ;    O10 - C37    - H74   
   148    146    154      1    1.1151e+02    5.2635e+02 ;    C37 - C32    - C57   
   148    146    204      1    1.0980e+02    3.8744e+02 ;    C37 - C32    - H64   
   148    146    205      1    1.0980e+02    3.8744e+02 ;    C37 - C32    - H69   
   148    147    232      1    1.0726e+02    3.9664e+02 ;    C37 - O10    - H197  
   148    150    152      1    1.1151e+02    5.2635e+02 ;    C37 - C42    - C47   
   148    150    176      1    1.1151e+02    5.2635e+02 ;    C37 - C42    - C136  
   148    150    177      1    1.1151e+02    5.2635e+02 ;    C37 - C42    - C138  
   149    171    151      1    1.2305e+02    6.2091e+02 ;     N5 - C126   - O15   
   149    171    165      1    1.1518e+02    5.5898e+02 ;     N5 - C126   - C108  
   149    179    180      1    1.1161e+02    5.5145e+02 ;     N5 - C33    - C38   
   149    179    249      1    1.0888e+02    4.1673e+02 ;     N5 - C33    - H55   
   149    179    250      1    1.0888e+02    4.1673e+02 ;     N5 - C33    - H60   
   150    148    206      1    1.0956e+02    3.8828e+02 ;    C42 - C37    - H74   
   150    152    153      1    1.1151e+02    5.2635e+02 ;    C42 - C47    - C52   
   150    152    155      1    1.1151e+02    5.2635e+02 ;    C42 - C47    - C62   
   150    152    203      1    1.0980e+02    3.8744e+02 ;    C42 - C47    - H59   
   150    176    239      1    1.0980e+02    3.8744e+02 ;    C42 - C136   - H211  
   150    176    240      1    1.0980e+02    3.8744e+02 ;    C42 - C136   - H213  
   150    176    241      1    1.0980e+02    3.8744e+02 ;    C42 - C136   - H215  
   150    177    242      1    1.0980e+02    3.8744e+02 ;    C42 - C138   - H217  
   150    177    243      1    1.0980e+02    3.8744e+02 ;    C42 - C138   - H219  
   150    177    244      1    1.0980e+02    3.8744e+02 ;    C42 - C138   - H221  
   151    171    165      1    1.2320e+02    5.6400e+02 ;    O15 - C126   - C108  
   152    150    176      1    1.1151e+02    5.2635e+02 ;    C47 - C42    - C136  
   152    150    177      1    1.1151e+02    5.2635e+02 ;    C47 - C42    - C138  
   152    153    154      1    1.1151e+02    5.2635e+02 ;    C47 - C52    - C57   
   152    153    158      1    1.1151e+02    5.2635e+02 ;    C47 - C52    - C77   
   152    153    173      1    1.1151e+02    5.2635e+02 ;    C47 - C52    - C130  
   152    155    156      1    1.1151e+02    5.2635e+02 ;    C47 - C62    - C67   
   152    155    209      1    1.0980e+02    3.8744e+02 ;    C47 - C62    - H89   
   152    155    210      1    1.0980e+02    3.8744e+02 ;    C47 - C62    - H94   
   153    152    155      1    1.1151e+02    5.2635e+02 ;    C52 - C47    - C62   
   153    152    203      1    1.0980e+02    3.8744e+02 ;    C52 - C47    - H59   
   153    154    207      1    1.0980e+02    3.8744e+02 ;    C52 - C57    - H79   
   153    154    208      1    1.0980e+02    3.8744e+02 ;    C52 - C57    - H84   
   153    158    157      1    1.1151e+02    5.2635e+02 ;    C52 - C77    - C72   
   153    158    162      1    1.1151e+02    5.2635e+02 ;    C52 - C77    - C97   
   153    158    202      1    1.0980e+02    3.8744e+02 ;    C52 - C77    - H54   
   153    173    229      1    1.0980e+02    3.8744e+02 ;    C52 - C130   - H189  
   153    173    230      1    1.0980e+02    3.8744e+02 ;    C52 - C130   - H192  
   153    173    231      1    1.0980e+02    3.8744e+02 ;    C52 - C130   - H195  
   154    146    204      1    1.0980e+02    3.8744e+02 ;    C57 - C32    - H64   
   154    146    205      1    1.0980e+02    3.8744e+02 ;    C57 - C32    - H69   
   154    153    158      1    1.1151e+02    5.2635e+02 ;    C57 - C52    - C77   
   154    153    173      1    1.1151e+02    5.2635e+02 ;    C57 - C52    - C130  
   155    152    203      1    1.0980e+02    3.8744e+02 ;    C62 - C47    - H59   
   155    156    157      1    1.1151e+02    5.2635e+02 ;    C62 - C67    - C72   
   155    156    211      1    1.0980e+02    3.8744e+02 ;    C62 - C67    - H99   
   155    156    212      1    1.0980e+02    3.8744e+02 ;    C62 - C67    - H104  
   156    155    209      1    1.0980e+02    3.8744e+02 ;    C67 - C62    - H89   
   156    155    210      1    1.0980e+02    3.8744e+02 ;    C67 - C62    - H94   
   156    157    158      1    1.1151e+02    5.2635e+02 ;    C67 - C72    - C77   
   156    157    159      1    1.1151e+02    5.2635e+02 ;    C67 - C72    - C82   
   156    157    172      1    1.1151e+02    5.2635e+02 ;    C67 - C72    - C128  
   157    156    211      1    1.0980e+02    3.8744e+02 ;    C72 - C67    - H99   
   157    156    212      1    1.0980e+02    3.8744e+02 ;    C72 - C67    - H104  
   157    158    162      1    1.1151e+02    5.2635e+02 ;    C72 - C77    - C97   
   157    158    202      1    1.0980e+02    3.8744e+02 ;    C72 - C77    - H54   
   157    159    160      1    1.1156e+02    5.3053e+02 ;    C72 - C82    - C87   
   157    159    163      1    1.1151e+02    5.2635e+02 ;    C72 - C82    - C102  
   157    159    175      1    1.1151e+02    5.2635e+02 ;    C72 - C82    - C134  
   157    172    226      1    1.0980e+02    3.8744e+02 ;    C72 - C128   - H174  
   157    172    227      1    1.0980e+02    3.8744e+02 ;    C72 - C128   - H179  
   157    172    228      1    1.0980e+02    3.8744e+02 ;    C72 - C128   - H184  
   158    153    173      1    1.1151e+02    5.2635e+02 ;    C77 - C52    - C130  
   158    157    159      1    1.1151e+02    5.2635e+02 ;    C77 - C72    - C82   
   158    157    172      1    1.1151e+02    5.2635e+02 ;    C77 - C72    - C128  
   158    162    161      1    1.1156e+02    5.3053e+02 ;    C77 - C97    - C92   
   158    162    214      1    1.0980e+02    3.8744e+02 ;    C77 - C97    - H114  
   158    162    215      1    1.0980e+02    3.8744e+02 ;    C77 - C97    - H119  
   159    157    172      1    1.1151e+02    5.2635e+02 ;    C82 - C72    - C128  
   159    160    161      1    1.2363e+02    5.3639e+02 ;    C82 - C87    - C92   
   159    160    166      1    1.1565e+02    5.2635e+02 ;    C82 - C87    - C111  
   159    163    164      1    1.1151e+02    5.2635e+02 ;    C82 - C102   - C105  
   159    163    216      1    1.0980e+02    3.8744e+02 ;    C82 - C102   - H124  
   159    163    217      1    1.0980e+02    3.8744e+02 ;    C82 - C102   - H129  
   159    175    236      1    1.0980e+02    3.8744e+02 ;    C82 - C134   - H205  
   159    175    237      1    1.0980e+02    3.8744e+02 ;    C82 - C134   - H207  
   159    175    238      1    1.0980e+02    3.8744e+02 ;    C82 - C134   - H209  
   160    159    163      1    1.1156e+02    5.3053e+02 ;    C87 - C82    - C102  
   160    159    175      1    1.1156e+02    5.3053e+02 ;    C87 - C82    - C134  
   160    161    162      1    1.2363e+02    5.3639e+02 ;    C87 - C92    - C97   
   160    161    213      1    1.2043e+02    4.1756e+02 ;    C87 - C92    - H109  
   160    166    165      1    1.1156e+02    5.3053e+02 ;    C87 - C111   - C108  
   160    166    170      1    1.1156e+02    5.3053e+02 ;    C87 - C111   - C123  
   160    166    201      1    1.1036e+02    3.9330e+02 ;    C87 - C111   - H49   
   161    160    166      1    1.2363e+02    5.3639e+02 ;    C92 - C87    - C111  
   161    162    214      1    1.1036e+02    3.9330e+02 ;    C92 - C97    - H114  
   161    162    215      1    1.1036e+02    3.9330e+02 ;    C92 - C97    - H119  
   162    158    202      1    1.0980e+02    3.8744e+02 ;    C97 - C77    - H54   
   162    161    213      1    1.1568e+02    3.8409e+02 ;    C97 - C92    - H109  
   163    159    175      1    1.1151e+02    5.2635e+02 ;   C102 - C82    - C134  
   163    164    165      1    1.1151e+02    5.2635e+02 ;   C102 - C105   - C108  
   163    164    218      1    1.0980e+02    3.8744e+02 ;   C102 - C105   - H134  
   163    164    219      1    1.0980e+02    3.8744e+02 ;   C102 - C105   - H139  
   164    163    216      1    1.0980e+02    3.8744e+02 ;   C105 - C102   - H124  
   164    163    217      1    1.0980e+02    3.8744e+02 ;   C105 - C102   - H129  
   164    165    166      1    1.1151e+02    5.2635e+02 ;   C105 - C108   - C111  
   164    165    167      1    1.1151e+02    5.2635e+02 ;   C105 - C108   - C114  
   164    165    171      1    1.1104e+02    5.2969e+02 ;   C105 - C108   - C126  
   165    164    218      1    1.0980e+02    3.8744e+02 ;   C108 - C105   - H134  
   165    164    219      1    1.0980e+02    3.8744e+02 ;   C108 - C105   - H139  
   165    166    170      1    1.1151e+02    5.2635e+02 ;   C108 - C111   - C123  
   165    166    201      1    1.0980e+02    3.8744e+02 ;   C108 - C111   - H49   
   165    167    168      1    1.1151e+02    5.2635e+02 ;   C108 - C114   - C117  
   165    167    220      1    1.0980e+02    3.8744e+02 ;   C108 - C114   - H144  
   165    167    221      1    1.0980e+02    3.8744e+02 ;   C108 - C114   - H149  
   166    165    167      1    1.1151e+02    5.2635e+02 ;   C111 - C108   - C114  
   166    165    171      1    1.1104e+02    5.2969e+02 ;   C111 - C108   - C126  
   166    170    169      1    1.1151e+02    5.2635e+02 ;   C111 - C123   - C120  
   166    170    224      1    1.0980e+02    3.8744e+02 ;   C111 - C123   - H164  
   166    170    225      1    1.0980e+02    3.8744e+02 ;   C111 - C123   - H169  
   167    165    171      1    1.1104e+02    5.2969e+02 ;   C114 - C108   - C126  
   167    168    169      1    1.1151e+02    5.2635e+02 ;   C114 - C117   - C120  
   167    168    222      1    1.0980e+02    3.8744e+02 ;   C114 - C117   - H154  
   167    168    223      1    1.0980e+02    3.8744e+02 ;   C114 - C117   - H159  
   168    167    220      1    1.0980e+02    3.8744e+02 ;   C117 - C114   - H144  
   168    167    221      1    1.0980e+02    3.8744e+02 ;   C117 - C114   - H149  
   168    169    170      1    1.1151e+02    5.2635e+02 ;   C117 - C120   - C123  
   168    169    174      1    1.1151e+02    5.2635e+02 ;   C117 - C120   - C132  
   168    169    178      1    1.1151e+02    5.2635e+02 ;   C117 - C120   - C140  
   169    168    222      1    1.0980e+02    3.8744e+02 ;   C120 - C117   - H154  
   169    168    223      1    1.0980e+02    3.8744e+02 ;   C120 - C117   - H159  
   169    170    224      1    1.0980e+02    3.8744e+02 ;   C120 - C123   - H164  
   169    170    225      1    1.0980e+02    3.8744e+02 ;   C120 - C123   - H169  
   169    174    233      1    1.0980e+02    3.8744e+02 ;   C120 - C132   - H199  
   169    174    234      1    1.0980e+02    3.8744e+02 ;   C120 - C132   - H201  
   169    174    235      1    1.0980e+02    3.8744e+02 ;   C120 - C132   - H203  
   169    178    245      1    1.0980e+02    3.8744e+02 ;   C120 - C140   - H223  
   169    178    246      1    1.0980e+02    3.8744e+02 ;   C120 - C140   - H225  
   169    178    247      1    1.0980e+02    3.8744e+02 ;   C120 - C140   - H227  
   170    166    201      1    1.0980e+02    3.8744e+02 ;   C123 - C111   - H49   
   170    169    174      1    1.1151e+02    5.2635e+02 ;   C123 - C120   - C132  
   170    169    178      1    1.1151e+02    5.2635e+02 ;   C123 - C120   - C140  
   171    149    179      1    1.2069e+02    5.3053e+02 ;   C126 - N5     - C33   
   171    149    248      1    1.1755e+02    4.0417e+02 ;   C126 - N5     - H50   
   174    169    178      1    1.1151e+02    5.2635e+02 ;   C132 - C120   - C140  
   176    150    177      1    1.1151e+02    5.2635e+02 ;   C136 - C42    - C138  
   179    149    248      1    1.1768e+02    3.8325e+02 ;    C33 - N5     - H50   
   179    180    181      1    1.0797e+02    5.6902e+02 ;    C33 - C38    - O11   
   179    180    251      1    1.0956e+02    3.8828e+02 ;    C33 - C38    - H65   
   179    180    252      1    1.0956e+02    3.8828e+02 ;    C33 - C38    - H70   
   180    179    249      1    1.0956e+02    3.8828e+02 ;    C38 - C33    - H55   
   180    179    250      1    1.0956e+02    3.8828e+02 ;    C38 - C33    - H60   
   180    181    182      1    1.1248e+02    5.2467e+02 ;    C38 - O11    - C43   
   181    180    251      1    1.0978e+02    4.2509e+02 ;    O11 - C38    - H65   
   181    180    252      1    1.0978e+02    4.2509e+02 ;    O11 - C38    - H70   
   181    182    183      1    1.0797e+02    5.6902e+02 ;    O11 - C43    - C48   
   181    182    253      1    1.0978e+02    4.2509e+02 ;    O11 - C43    - H75   
   181    182    254      1    1.0978e+02    4.2509e+02 ;    O11 - C43    - H80   
   182    183    184      1    1.0797e+02    5.6902e+02 ;    C43 - C48    - O19   
   182    183    255      1    1.0956e+02    3.8828e+02 ;    C43 - C48    - H85   
   182    183    256      1    1.0956e+02    3.8828e+02 ;    C43 - C48    - H90   
   183    182    253      1    1.0956e+02    3.8828e+02 ;    C48 - C43    - H75   
   183    182    254      1    1.0956e+02    3.8828e+02 ;    C48 - C43    - H80   
   183    184    185      1    1.1248e+02    5.2467e+02 ;    C48 - O19    - C53   
   184    183    255      1    1.0978e+02    4.2509e+02 ;    O19 - C48    - H85   
   184    183    256      1    1.0978e+02    4.2509e+02 ;    O19 - C48    - H90   
   184    185    186      1    1.0797e+02    5.6902e+02 ;    O19 - C53    - C58   
   184    185    257      1    1.0978e+02    4.2509e+02 ;    O19 - C53    - H95   
   184    185    258      1    1.0978e+02    4.2509e+02 ;    O19 - C53    - H100  
   185    186    187      1    1.0797e+02    5.6902e+02 ;    C53 - C58    - O16   
   185    186    259      1    1.0956e+02    3.8828e+02 ;    C53 - C58    - H105  
   185    186    260      1    1.0956e+02    3.8828e+02 ;    C53 - C58    - H110  
   186    185    257      1    1.0956e+02    3.8828e+02 ;    C58 - C53    - H95   
   186    185    258      1    1.0956e+02    3.8828e+02 ;    C58 - C53    - H100  
   186    187    188      1    1.1248e+02    5.2467e+02 ;    C58 - O16    - C63   
   187    186    259      1    1.0978e+02    4.2509e+02 ;    O16 - C58    - H105  
   187    186    260      1    1.0978e+02    4.2509e+02 ;    O16 - C58    - H110  
   187    188    189      1    1.0797e+02    5.6902e+02 ;    O16 - C63    - C68   
   187    188    261      1    1.0978e+02    4.2509e+02 ;    O16 - C63    - H115  
   187    188    262      1    1.0978e+02    4.2509e+02 ;    O16 - C63    - H120  
   188    189    190      1    1.0797e+02    5.6902e+02 ;    C63 - C68    - O21   
   188    189    263      1    1.0956e+02    3.8828e+02 ;    C63 - C68    - H125  
   188    189    264      1    1.0956e+02    3.8828e+02 ;    C63 - C68    - H130  
   189    188    261      1    1.0956e+02    3.8828e+02 ;    C68 - C63    - H115  
   189    188    262      1    1.0956e+02    3.8828e+02 ;    C68 - C63    - H120  
   189    190    191      1    1.1248e+02    5.2467e+02 ;    C68 - O21    - C73   
   190    189    263      1    1.0978e+02    4.2509e+02 ;    O21 - C68    - H125  
   190    189    264      1    1.0978e+02    4.2509e+02 ;    O21 - C68    - H130  
   190    191    192      1    1.0797e+02    5.6902e+02 ;    O21 - C73    - C78   
   190    191    265      1    1.0978e+02    4.2509e+02 ;    O21 - C73    - H135  
   190    191    266      1    1.0978e+02    4.2509e+02 ;    O21 - C73    - H140  
   191    192    193      1    1.0797e+02    5.6902e+02 ;    C73 - C78    - O23   
   191    192    267      1    1.0956e+02    3.8828e+02 ;    C73 - C78    - H145  
   191    192    268      1    1.0956e+02    3.8828e+02 ;    C73 - C78    - H150  
   192    191    265      1    1.0956e+02    3.8828e+02 ;    C78 - C73    - H135  
   192    191    266      1    1.0956e+02    3.8828e+02 ;    C78 - C73    - H140  
   192    193    194      1    1.1248e+02    5.2467e+02 ;    C78 - O23    - C83   
   193    192    267      1    1.0978e+02    4.2509e+02 ;    O23 - C78    - H145  
   193    192    268      1    1.0978e+02    4.2509e+02 ;    O23 - C78    - H150  
   193    194    195      1    1.0797e+02    5.6902e+02 ;    O23 - C83    - C88   
   193    194    269      1    1.0978e+02    4.2509e+02 ;    O23 - C83    - H155  
   193    194    270      1    1.0978e+02    4.2509e+02 ;    O23 - C83    - H160  
   194    195    196      1    1.1288e+02    5.4810e+02 ;    C83 - C88    - N7    
   194    195    271      1    1.0956e+02    3.8828e+02 ;    C83 - C88    - H165  
   194    195    272      1    1.0956e+02    3.8828e+02 ;    C83 - C88    - H170  
   195    194    269      1    1.0956e+02    3.8828e+02 ;    C88 - C83    - H155  
   195    194    270      1    1.0956e+02    3.8828e+02 ;    C88 - C83    - H160  
   195    196    197      1    1.2018e+02    5.4810e+02 ;    C88 - N7     - N9    
   195    196    199      1    1.2646e+02    5.1798e+02 ;    C88 - N7     - C93   
   196    195    271      1    1.0878e+02    4.1673e+02 ;     N7 - C88    - H165  
   196    195    272      1    1.0878e+02    4.1673e+02 ;     N7 - C88    - H170  
   196    197    198      1    1.0624e+02    6.3597e+02 ;     N7 - N9     - N11   
   196    199    200      1    1.0699e+02    6.1421e+02 ;     N7 - C93    - C98   
   196    199    273      1    1.2053e+02    4.1673e+02 ;     N7 - C93    - H175  
   197    196    199      1    1.1236e+02    5.8576e+02 ;     N9 - N7     - C93   
   197    198    200      1    1.0862e+02    6.1003e+02 ;     N9 - N11    - C98   
   198    200    199      1    1.1165e+02    6.0417e+02 ;    N11 - C98    - C93   
   200     66    274      1    1.0964e+02    3.9664e+02 ;    C98 - C122   - H180  
   200     66    275      1    1.0964e+02    3.9664e+02 ;    C98 - C122   - H185  
   200    199    273      1    1.2848e+02    3.9581e+02 ;    C98 - C93    - H175  
   204    146    205      1    1.0758e+02    3.2970e+02 ;    H64 - C32    - H69   
   207    154    208      1    1.0758e+02    3.2970e+02 ;    H79 - C57    - H84   
   209    155    210      1    1.0758e+02    3.2970e+02 ;    H89 - C62    - H94   
   211    156    212      1    1.0758e+02    3.2970e+02 ;    H99 - C67    - H104  
   214    162    215      1    1.0758e+02    3.2970e+02 ;   H114 - C97    - H119  
   216    163    217      1    1.0758e+02    3.2970e+02 ;   H124 - C102   - H129  
   218    164    219      1    1.0758e+02    3.2970e+02 ;   H134 - C105   - H139  
   220    167    221      1    1.0758e+02    3.2970e+02 ;   H144 - C114   - H149  
   222    168    223      1    1.0758e+02    3.2970e+02 ;   H154 - C117   - H159  
   224    170    225      1    1.0758e+02    3.2970e+02 ;   H164 - C123   - H169  
   226    172    227      1    1.0758e+02    3.2970e+02 ;   H174 - C128   - H179  
   226    172    228      1    1.0758e+02    3.2970e+02 ;   H174 - C128   - H184  
   227    172    228      1    1.0758e+02    3.2970e+02 ;   H179 - C128   - H184  
   229    173    230      1    1.0758e+02    3.2970e+02 ;   H189 - C130   - H192  
   229    173    231      1    1.0758e+02    3.2970e+02 ;   H189 - C130   - H195  
   230    173    231      1    1.0758e+02    3.2970e+02 ;   H192 - C130   - H195  
   233    174    234      1    1.0758e+02    3.2970e+02 ;   H199 - C132   - H201  
   233    174    235      1    1.0758e+02    3.2970e+02 ;   H199 - C132   - H203  
   234    174    235      1    1.0758e+02    3.2970e+02 ;   H201 - C132   - H203  
   236    175    237      1    1.0758e+02    3.2970e+02 ;   H205 - C134   - H207  
   236    175    238      1    1.0758e+02    3.2970e+02 ;   H205 - C134   - H209  
   237    175    238      1    1.0758e+02    3.2970e+02 ;   H207 - C134   - H209  
   239    176    240      1    1.0758e+02    3.2970e+02 ;   H211 - C136   - H213  
   239    176    241      1    1.0758e+02    3.2970e+02 ;   H211 - C136   - H215  
   240    176    241      1    1.0758e+02    3.2970e+02 ;   H213 - C136   - H215  
   242    177    243      1    1.0758e+02    3.2970e+02 ;   H217 - C138   - H219  
   242    177    244      1    1.0758e+02    3.2970e+02 ;   H217 - C138   - H221  
   243    177    244      1    1.0758e+02    3.2970e+02 ;   H219 - C138   - H221  
   245    178    246      1    1.0758e+02    3.2970e+02 ;   H223 - C140   - H225  
   245    178    247      1    1.0758e+02    3.2970e+02 ;   H223 - C140   - H227  
   246    178    247      1    1.0758e+02    3.2970e+02 ;   H225 - C140   - H227  
   249    179    250      1    1.0846e+02    3.2803e+02 ;    H55 - C33    - H60   
   251    180    252      1    1.0846e+02    3.2803e+02 ;    H65 - C38    - H70   
   253    182    254      1    1.0846e+02    3.2803e+02 ;    H75 - C43    - H80   
   255    183    256      1    1.0846e+02    3.2803e+02 ;    H85 - C48    - H90   
   257    185    258      1    1.0846e+02    3.2803e+02 ;    H95 - C53    - H100  
   259    186    260      1    1.0846e+02    3.2803e+02 ;   H105 - C58    - H110  
   261    188    262      1    1.0846e+02    3.2803e+02 ;   H115 - C63    - H120  
   263    189    264      1    1.0846e+02    3.2803e+02 ;   H125 - C68    - H130  
   265    191    266      1    1.0846e+02    3.2803e+02 ;   H135 - C73    - H140  
   267    192    268      1    1.0846e+02    3.2803e+02 ;   H145 - C78    - H150  
   269    194    270      1    1.0846e+02    3.2803e+02 ;   H155 - C83    - H160  
   271    195    272      1    1.0846e+02    3.2803e+02 ;   H165 - C88    - H170  
   274     66    275      1    1.0846e+02    3.2803e+02 ;   H180 - C122   - H185  
   276    278    277      1    1.1019e+02    5.6484e+02 ;    C34 - C39    - O12   
   276    278    280      1    1.1151e+02    5.2635e+02 ;    C34 - C39    - C44   
   276    278    336      1    1.0956e+02    3.8828e+02 ;    C34 - C39    - H76   
   276    284    283      1    1.1151e+02    5.2635e+02 ;    C34 - C59    - C54   
   276    284    337      1    1.0980e+02    3.8744e+02 ;    C34 - C59    - H81   
   276    284    338      1    1.0980e+02    3.8744e+02 ;    C34 - C59    - H86   
   277    278    280      1    1.1019e+02    5.6484e+02 ;    O12 - C39    - C44   
   277    278    336      1    1.1026e+02    4.2593e+02 ;    O12 - C39    - H76   
   278    276    284      1    1.1151e+02    5.2635e+02 ;    C39 - C34    - C59   
   278    276    334      1    1.0980e+02    3.8744e+02 ;    C39 - C34    - H66   
   278    276    335      1    1.0980e+02    3.8744e+02 ;    C39 - C34    - H71   
   278    277    362      1    1.0726e+02    3.9664e+02 ;    C39 - O12    - H198  
   278    280    282      1    1.1151e+02    5.2635e+02 ;    C39 - C44    - C49   
   278    280    306      1    1.1151e+02    5.2635e+02 ;    C39 - C44    - C137  
   278    280    307      1    1.1151e+02    5.2635e+02 ;    C39 - C44    - C139  
   279    301    281      1    1.2305e+02    6.2091e+02 ;     N6 - C127   - O17   
   279    301    295      1    1.1518e+02    5.5898e+02 ;     N6 - C127   - C109  
   279    309    310      1    1.1161e+02    5.5145e+02 ;     N6 - C35    - C40   
   279    309    379      1    1.0888e+02    4.1673e+02 ;     N6 - C35    - H57   
   279    309    380      1    1.0888e+02    4.1673e+02 ;     N6 - C35    - H62   
   280    278    336      1    1.0956e+02    3.8828e+02 ;    C44 - C39    - H76   
   280    282    283      1    1.1151e+02    5.2635e+02 ;    C44 - C49    - C54   
   280    282    285      1    1.1151e+02    5.2635e+02 ;    C44 - C49    - C64   
   280    282    333      1    1.0980e+02    3.8744e+02 ;    C44 - C49    - H61   
   280    306    369      1    1.0980e+02    3.8744e+02 ;    C44 - C137   - H212  
   280    306    370      1    1.0980e+02    3.8744e+02 ;    C44 - C137   - H214  
   280    306    371      1    1.0980e+02    3.8744e+02 ;    C44 - C137   - H216  
   280    307    372      1    1.0980e+02    3.8744e+02 ;    C44 - C139   - H218  
   280    307    373      1    1.0980e+02    3.8744e+02 ;    C44 - C139   - H220  
   280    307    374      1    1.0980e+02    3.8744e+02 ;    C44 - C139   - H222  
   281    301    295      1    1.2320e+02    5.6400e+02 ;    O17 - C127   - C109  
   282    280    306      1    1.1151e+02    5.2635e+02 ;    C49 - C44    - C137  
   282    280    307      1    1.1151e+02    5.2635e+02 ;    C49 - C44    - C139  
   282    283    284      1    1.1151e+02    5.2635e+02 ;    C49 - C54    - C59   
   282    283    288      1    1.1151e+02    5.2635e+02 ;    C49 - C54    - C79   
   282    283    303      1    1.1151e+02    5.2635e+02 ;    C49 - C54    - C131  
   282    285    286      1    1.1151e+02    5.2635e+02 ;    C49 - C64    - C69   
   282    285    339      1    1.0980e+02    3.8744e+02 ;    C49 - C64    - H91   
   282    285    340      1    1.0980e+02    3.8744e+02 ;    C49 - C64    - H96   
   283    282    285      1    1.1151e+02    5.2635e+02 ;    C54 - C49    - C64   
   283    282    333      1    1.0980e+02    3.8744e+02 ;    C54 - C49    - H61   
   283    284    337      1    1.0980e+02    3.8744e+02 ;    C54 - C59    - H81   
   283    284    338      1    1.0980e+02    3.8744e+02 ;    C54 - C59    - H86   
   283    288    287      1    1.1151e+02    5.2635e+02 ;    C54 - C79    - C74   
   283    288    292      1    1.1151e+02    5.2635e+02 ;    C54 - C79    - C99   
   283    288    332      1    1.0980e+02    3.8744e+02 ;    C54 - C79    - H56   
   283    303    359      1    1.0980e+02    3.8744e+02 ;    C54 - C131   - H190  
   283    303    360      1    1.0980e+02    3.8744e+02 ;    C54 - C131   - H193  
   283    303    361      1    1.0980e+02    3.8744e+02 ;    C54 - C131   - H196  
   284    276    334      1    1.0980e+02    3.8744e+02 ;    C59 - C34    - H66   
   284    276    335      1    1.0980e+02    3.8744e+02 ;    C59 - C34    - H71   
   284    283    288      1    1.1151e+02    5.2635e+02 ;    C59 - C54    - C79   
   284    283    303      1    1.1151e+02    5.2635e+02 ;    C59 - C54    - C131  
   285    282    333      1    1.0980e+02    3.8744e+02 ;    C64 - C49    - H61   
   285    286    287      1    1.1151e+02    5.2635e+02 ;    C64 - C69    - C74   
   285    286    341      1    1.0980e+02    3.8744e+02 ;    C64 - C69    - H101  
   285    286    342      1    1.0980e+02    3.8744e+02 ;    C64 - C69    - H106  
   286    285    339      1    1.0980e+02    3.8744e+02 ;    C69 - C64    - H91   
   286    285    340      1    1.0980e+02    3.8744e+02 ;    C69 - C64    - H96   
   286    287    288      1    1.1151e+02    5.2635e+02 ;    C69 - C74    - C79   
   286    287    289      1    1.1151e+02    5.2635e+02 ;    C69 - C74    - C84   
   286    287    302      1    1.1151e+02    5.2635e+02 ;    C69 - C74    - C129  
   287    286    341      1    1.0980e+02    3.8744e+02 ;    C74 - C69    - H101  
   287    286    342      1    1.0980e+02    3.8744e+02 ;    C74 - C69    - H106  
   287    288    292      1    1.1151e+02    5.2635e+02 ;    C74 - C79    - C99   
   287    288    332      1    1.0980e+02    3.8744e+02 ;    C74 - C79    - H56   
   287    289    290      1    1.1156e+02    5.3053e+02 ;    C74 - C84    - C89   
   287    289    293      1    1.1151e+02    5.2635e+02 ;    C74 - C84    - C103  
   287    289    305      1    1.1151e+02    5.2635e+02 ;    C74 - C84    - C135  
   287    302    356      1    1.0980e+02    3.8744e+02 ;    C74 - C129   - H176  
   287    302    357      1    1.0980e+02    3.8744e+02 ;    C74 - C129   - H181  
   287    302    358      1    1.0980e+02    3.8744e+02 ;    C74 - C129   - H186  
   288    283    303      1    1.1151e+02    5.2635e+02 ;    C79 - C54    - C131  
   288    287    289      1    1.1151e+02    5.2635e+02 ;    C79 - C74    - C84   
   288    287    302      1    1.1151e+02    5.2635e+02 ;    C79 - C74    - C129  
   288    292    291      1    1.1156e+02    5.3053e+02 ;    C79 - C99    - C94   
   288    292    344      1    1.0980e+02    3.8744e+02 ;    C79 - C99    - H116  
   288    292    345      1    1.0980e+02    3.8744e+02 ;    C79 - C99    - H121  
   289    287    302      1    1.1151e+02    5.2635e+02 ;    C84 - C74    - C129  
   289    290    291      1    1.2363e+02    5.3639e+02 ;    C84 - C89    - C94   
   289    290    296      1    1.1565e+02    5.2635e+02 ;    C84 - C89    - C112  
   289    293    294      1    1.1151e+02    5.2635e+02 ;    C84 - C103   - C106  
   289    293    346      1    1.0980e+02    3.8744e+02 ;    C84 - C103   - H126  
   289    293    347      1    1.0980e+02    3.8744e+02 ;    C84 - C103   - H131  
   289    305    366      1    1.0980e+02    3.8744e+02 ;    C84 - C135   - H206  
   289    305    367      1    1.0980e+02    3.8744e+02 ;    C84 - C135   - H208  
   289    305    368      1    1.0980e+02    3.8744e+02 ;    C84 - C135   - H210  
   290    289    293      1    1.1156e+02    5.3053e+02 ;    C89 - C84    - C103  
   290    289    305      1    1.1156e+02    5.3053e+02 ;    C89 - C84    - C135  
   290    291    292      1    1.2363e+02    5.3639e+02 ;    C89 - C94    - C99   
   290    291    343      1    1.2043e+02    4.1756e+02 ;    C89 - C94    - H111  
   290    296    295      1    1.1156e+02    5.3053e+02 ;    C89 - C112   - C109  
   290    296    300      1    1.1156e+02    5.3053e+02 ;    C89 - C112   - C124  
   290    296    331      1    1.1036e+02    3.9330e+02 ;    C89 - C112   - H51   
   291    290    296      1    1.2363e+02    5.3639e+02 ;    C94 - C89    - C112  
   291    292    344      1    1.1036e+02    3.9330e+02 ;    C94 - C99    - H116  
   291    292    345      1    1.1036e+02    3.9330e+02 ;    C94 - C99    - H121  
   292    288    332      1    1.0980e+02    3.8744e+02 ;    C99 - C79    - H56   
   292    291    343      1    1.1568e+02    3.8409e+02 ;    C99 - C94    - H111  
   293    289    305      1    1.1151e+02    5.2635e+02 ;   C103 - C84    - C135  
   293    294    295      1    1.1151e+02    5.2635e+02 ;   C103 - C106   - C109  
   293    294    348      1    1.0980e+02    3.8744e+02 ;   C103 - C106   - H136  
   293    294    349      1    1.0980e+02    3.8744e+02 ;   C103 - C106   - H141  
   294    293    346      1    1.0980e+02    3.8744e+02 ;   C106 - C103   - H126  
   294    293    347      1    1.0980e+02    3.8744e+02 ;   C106 - C103   - H131  
   294    295    296      1    1.1151e+02    5.2635e+02 ;   C106 - C109   - C112  
   294    295    297      1    1.1151e+02    5.2635e+02 ;   C106 - C109   - C115  
   294    295    301      1    1.1104e+02    5.2969e+02 ;   C106 - C109   - C127  
   295    294    348      1    1.0980e+02    3.8744e+02 ;   C109 - C106   - H136  
   295    294    349      1    1.0980e+02    3.8744e+02 ;   C109 - C106   - H141  
   295    296    300      1    1.1151e+02    5.2635e+02 ;   C109 - C112   - C124  
   295    296    331      1    1.0980e+02    3.8744e+02 ;   C109 - C112   - H51   
   295    297    298      1    1.1151e+02    5.2635e+02 ;   C109 - C115   - C118  
   295    297    350      1    1.0980e+02    3.8744e+02 ;   C109 - C115   - H146  
   295    297    351      1    1.0980e+02    3.8744e+02 ;   C109 - C115   - H151  
   296    295    297      1    1.1151e+02    5.2635e+02 ;   C112 - C109   - C115  
   296    295    301      1    1.1104e+02    5.2969e+02 ;   C112 - C109   - C127  
   296    300    299      1    1.1151e+02    5.2635e+02 ;   C112 - C124   - C121  
   296    300    354      1    1.0980e+02    3.8744e+02 ;   C112 - C124   - H166  
   296    300    355      1    1.0980e+02    3.8744e+02 ;   C112 - C124   - H171  
   297    295    301      1    1.1104e+02    5.2969e+02 ;   C115 - C109   - C127  
   297    298    299      1    1.1151e+02    5.2635e+02 ;   C115 - C118   - C121  
   297    298    352      1    1.0980e+02    3.8744e+02 ;   C115 - C118   - H156  
   297    298    353      1    1.0980e+02    3.8744e+02 ;   C115 - C118   - H161  
   298    297    350      1    1.0980e+02    3.8744e+02 ;   C118 - C115   - H146  
   298    297    351      1    1.0980e+02    3.8744e+02 ;   C118 - C115   - H151  
   298    299    300      1    1.1151e+02    5.2635e+02 ;   C118 - C121   - C124  
   298    299    304      1    1.1151e+02    5.2635e+02 ;   C118 - C121   - C133  
   298    299    308      1    1.1151e+02    5.2635e+02 ;   C118 - C121   - C141  
   299    298    352      1    1.0980e+02    3.8744e+02 ;   C121 - C118   - H156  
   299    298    353      1    1.0980e+02    3.8744e+02 ;   C121 - C118   - H161  
   299    300    354      1    1.0980e+02    3.8744e+02 ;   C121 - C124   - H166  
   299    300    355      1    1.0980e+02    3.8744e+02 ;   C121 - C124   - H171  
   299    304    363      1    1.0980e+02    3.8744e+02 ;   C121 - C133   - H200  
   299    304    364      1    1.0980e+02    3.8744e+02 ;   C121 - C133   - H202  
   299    304    365      1    1.0980e+02    3.8744e+02 ;   C121 - C133   - H204  
   299    308    375      1    1.0980e+02    3.8744e+02 ;   C121 - C141   - H224  
   299    308    376      1    1.0980e+02    3.8744e+02 ;   C121 - C141   - H226  
   299    308    377      1    1.0980e+02    3.8744e+02 ;   C121 - C141   - H228  
   300    296    331      1    1.0980e+02    3.8744e+02 ;   C124 - C112   - H51   
   300    299    304      1    1.1151e+02    5.2635e+02 ;   C124 - C121   - C133  
   300    299    308      1    1.1151e+02    5.2635e+02 ;   C124 - C121   - C141  
   301    279    309      1    1.2069e+02    5.3053e+02 ;   C127 - N6     - C35   
   301    279    378      1    1.1755e+02    4.0417e+02 ;   C127 - N6     - H52   
   304    299    308      1    1.1151e+02    5.2635e+02 ;   C133 - C121   - C141  
   306    280    307      1    1.1151e+02    5.2635e+02 ;   C137 - C44    - C139  
   309    279    378      1    1.1768e+02    3.8325e+02 ;    C35 - N6     - H52   
   309    310    311      1    1.0797e+02    5.6902e+02 ;    C35 - C40    - O13   
   309    310    381      1    1.0956e+02    3.8828e+02 ;    C35 - C40    - H67   
   309    310    382      1    1.0956e+02    3.8828e+02 ;    C35 - C40    - H72   
   310    309    379      1    1.0956e+02    3.8828e+02 ;    C40 - C35    - H57   
   310    309    380      1    1.0956e+02    3.8828e+02 ;    C40 - C35    - H62   
   310    311    312      1    1.1248e+02    5.2467e+02 ;    C40 - O13    - C45   
   311    310    381      1    1.0978e+02    4.2509e+02 ;    O13 - C40    - H67   
   311    310    382      1    1.0978e+02    4.2509e+02 ;    O13 - C40    - H72   
   311    312    313      1    1.0797e+02    5.6902e+02 ;    O13 - C45    - C50   
   311    312    383      1    1.0978e+02    4.2509e+02 ;    O13 - C45    - H77   
   311    312    384      1    1.0978e+02    4.2509e+02 ;    O13 - C45    - H82   
   312    313    314      1    1.0797e+02    5.6902e+02 ;    C45 - C50    - O20   
   312    313    385      1    1.0956e+02    3.8828e+02 ;    C45 - C50    - H87   
   312    313    386      1    1.0956e+02    3.8828e+02 ;    C45 - C50    - H92   
   313    312    383      1    1.0956e+02    3.8828e+02 ;    C50 - C45    - H77   
   313    312    384      1    1.0956e+02    3.8828e+02 ;    C50 - C45    - H82   
   313    314    315      1    1.1248e+02    5.2467e+02 ;    C50 - O20    - C55   
   314    313    385      1    1.0978e+02    4.2509e+02 ;    O20 - C50    - H87   
   314    313    386      1    1.0978e+02    4.2509e+02 ;    O20 - C50    - H92   
   314    315    316      1    1.0797e+02    5.6902e+02 ;    O20 - C55    - C60   
   314    315    387      1    1.0978e+02    4.2509e+02 ;    O20 - C55    - H97   
   314    315    388      1    1.0978e+02    4.2509e+02 ;    O20 - C55    - H102  
   315    316    317      1    1.0797e+02    5.6902e+02 ;    C55 - C60    - O18   
   315    316    389      1    1.0956e+02    3.8828e+02 ;    C55 - C60    - H107  
   315    316    390      1    1.0956e+02    3.8828e+02 ;    C55 - C60    - H112  
   316    315    387      1    1.0956e+02    3.8828e+02 ;    C60 - C55    - H97   
   316    315    388      1    1.0956e+02    3.8828e+02 ;    C60 - C55    - H102  
   316    317    318      1    1.1248e+02    5.2467e+02 ;    C60 - O18    - C65   
   317    316    389      1    1.0978e+02    4.2509e+02 ;    O18 - C60    - H107  
   317    316    390      1    1.0978e+02    4.2509e+02 ;    O18 - C60    - H112  
   317    318    319      1    1.0797e+02    5.6902e+02 ;    O18 - C65    - C70   
   317    318    391      1    1.0978e+02    4.2509e+02 ;    O18 - C65    - H117  
   317    318    392      1    1.0978e+02    4.2509e+02 ;    O18 - C65    - H122  
   318    319    320      1    1.0797e+02    5.6902e+02 ;    C65 - C70    - O22   
   318    319    393      1    1.0956e+02    3.8828e+02 ;    C65 - C70    - H127  
   318    319    394      1    1.0956e+02    3.8828e+02 ;    C65 - C70    - H132  
   319    318    391      1    1.0956e+02    3.8828e+02 ;    C70 - C65    - H117  
   319    318    392      1    1.0956e+02    3.8828e+02 ;    C70 - C65    - H122  
   319    320    321      1    1.1248e+02    5.2467e+02 ;    C70 - O22    - C75   
   320    319    393      1    1.0978e+02    4.2509e+02 ;    O22 - C70    - H127  
   320    319    394      1    1.0978e+02    4.2509e+02 ;    O22 - C70    - H132  
   320    321    322      1    1.0797e+02    5.6902e+02 ;    O22 - C75    - C80   
   320    321    395      1    1.0978e+02    4.2509e+02 ;    O22 - C75    - H137  
   320    321    396      1    1.0978e+02    4.2509e+02 ;    O22 - C75    - H142  
   321    322    323      1    1.0797e+02    5.6902e+02 ;    C75 - C80    - O24   
   321    322    397      1    1.0956e+02    3.8828e+02 ;    C75 - C80    - H147  
   321    322    398      1    1.0956e+02    3.8828e+02 ;    C75 - C80    - H152  
   322    321    395      1    1.0956e+02    3.8828e+02 ;    C80 - C75    - H137  
   322    321    396      1    1.0956e+02    3.8828e+02 ;    C80 - C75    - H142  
   322    323    324      1    1.1248e+02    5.2467e+02 ;    C80 - O24    - C85   
   323    322    397      1    1.0978e+02    4.2509e+02 ;    O24 - C80    - H147  
   323    322    398      1    1.0978e+02    4.2509e+02 ;    O24 - C80    - H152  
   323    324    325      1    1.0797e+02    5.6902e+02 ;    O24 - C85    - C90   
   323    324    399      1    1.0978e+02    4.2509e+02 ;    O24 - C85    - H157  
   323    324    400      1    1.0978e+02    4.2509e+02 ;    O24 - C85    - H162  
   324    325    326      1    1.1288e+02    5.4810e+02 ;    C85 - C90    - N8    
   324    325    401      1    1.0956e+02    3.8828e+02 ;    C85 - C90    - H167  
   324    325    402      1    1.0956e+02    3.8828e+02 ;    C85 - C90    - H172  
   325    324    399      1    1.0956e+02    3.8828e+02 ;    C90 - C85    - H157  
   325    324    400      1    1.0956e+02    3.8828e+02 ;    C90 - C85    - H162  
   325    326    327      1    1.2018e+02    5.4810e+02 ;    C90 - N8     - N10   
   325    326    330      1    1.2646e+02    5.1798e+02 ;    C90 - N8     - C100  
   326    325    401      1    1.0878e+02    4.1673e+02 ;     N8 - C90    - H167  
   326    325    402      1    1.0878e+02    4.1673e+02 ;     N8 - C90    - H172  
   326    327    328      1    1.0624e+02    6.3597e+02 ;     N8 - N10    - N12   
   326    330    329      1    1.0699e+02    6.1421e+02 ;     N8 - C100   - C95   
   326    330    403      1    1.2053e+02    4.1673e+02 ;     N8 - C100   - H177  
   327    326    330      1    1.1236e+02    5.8576e+02 ;    N10 - N8     - C100  
   327    328    329      1    1.0862e+02    6.1003e+02 ;    N10 - N12    - C95   
   328    329    330      1    1.1165e+02    6.0417e+02 ;    N12 - C95    - C100  
   329     67    404      1    1.0964e+02    3.9664e+02 ;    C95 - C125   - H182  
   329     67    405      1    1.0964e+02    3.9664e+02 ;    C95 - C125   - H187  
   329    330    403      1    1.2848e+02    3.9581e+02 ;    C95 - C100   - H177  
   334    276    335      1    1.0758e+02    3.2970e+02 ;    H66 - C34    - H71   
   337    284    338      1    1.0758e+02    3.2970e+02 ;    H81 - C59    - H86   
   339    285    340      1    1.0758e+02    3.2970e+02 ;    H91 - C64    - H96   
   341    286    342      1    1.0758e+02    3.2970e+02 ;   H101 - C69    - H106  
   344    292    345      1    1.0758e+02    3.2970e+02 ;   H116 - C99    - H121  
   346    293    347      1    1.0758e+02    3.2970e+02 ;   H126 - C103   - H131  
   348    294    349      1    1.0758e+02    3.2970e+02 ;   H136 - C106   - H141  
   350    297    351      1    1.0758e+02    3.2970e+02 ;   H146 - C115   - H151  
   352    298    353      1    1.0758e+02    3.2970e+02 ;   H156 - C118   - H161  
   354    300    355      1    1.0758e+02    3.2970e+02 ;   H166 - C124   - H171  
   356    302    357      1    1.0758e+02    3.2970e+02 ;   H176 - C129   - H181  
   356    302    358      1    1.0758e+02    3.2970e+02 ;   H176 - C129   - H186  
   357    302    358      1    1.0758e+02    3.2970e+02 ;   H181 - C129   - H186  
   359    303    360      1    1.0758e+02    3.2970e+02 ;   H190 - C131   - H193  
   359    303    361      1    1.0758e+02    3.2970e+02 ;   H190 - C131   - H196  
   360    303    361      1    1.0758e+02    3.2970e+02 ;   H193 - C131   - H196  
   363    304    364      1    1.0758e+02    3.2970e+02 ;   H200 - C133   - H202  
   363    304    365      1    1.0758e+02    3.2970e+02 ;   H200 - C133   - H204  
   364    304    365      1    1.0758e+02    3.2970e+02 ;   H202 - C133   - H204  
   366    305    367      1    1.0758e+02    3.2970e+02 ;   H206 - C135   - H208  
   366    305    368      1    1.0758e+02    3.2970e+02 ;   H206 - C135   - H210  
   367    305    368      1    1.0758e+02    3.2970e+02 ;   H208 - C135   - H210  
   369    306    370      1    1.0758e+02    3.2970e+02 ;   H212 - C137   - H214  
   369    306    371      1    1.0758e+02    3.2970e+02 ;   H212 - C137   - H216  
   370    306    371      1    1.0758e+02    3.2970e+02 ;   H214 - C137   - H216  
   372    307    373      1    1.0758e+02    3.2970e+02 ;   H218 - C139   - H220  
   372    307    374      1    1.0758e+02    3.2970e+02 ;   H218 - C139   - H222  
   373    307    374      1    1.0758e+02    3.2970e+02 ;   H220 - C139   - H222  
   375    308    376      1    1.0758e+02    3.2970e+02 ;   H224 - C141   - H226  
   375    308    377      1    1.0758e+02    3.2970e+02 ;   H224 - C141   - H228  
   376    308    377      1    1.0758e+02    3.2970e+02 ;   H226 - C141   - H228  
   379    309    380      1    1.0846e+02    3.2803e+02 ;    H57 - C35    - H62   
   381    310    382      1    1.0846e+02    3.2803e+02 ;    H67 - C40    - H72   
   383    312    384      1    1.0846e+02    3.2803e+02 ;    H77 - C45    - H82   
   385    313    386      1    1.0846e+02    3.2803e+02 ;    H87 - C50    - H92   
   387    315    388      1    1.0846e+02    3.2803e+02 ;    H97 - C55    - H102  
   389    316    390      1    1.0846e+02    3.2803e+02 ;   H107 - C60    - H112  
   391    318    392      1    1.0846e+02    3.2803e+02 ;   H117 - C65    - H122  
   393    319    394      1    1.0846e+02    3.2803e+02 ;   H127 - C70    - H132  
   395    321    396      1    1.0846e+02    3.2803e+02 ;   H137 - C75    - H142  
   397    322    398      1    1.0846e+02    3.2803e+02 ;   H147 - C80    - H152  
   399    324    400      1    1.0846e+02    3.2803e+02 ;   H157 - C85    - H162  
   401    325    402      1    1.0846e+02    3.2803e+02 ;   H167 - C90    - H172  
   404     67    405      1    1.0846e+02    3.2803e+02 ;   H182 - C125   - H187  

[ dihedrals ] ; propers
; for gromacs 4.5 or higher, using funct 9
;    i      j      k      l   func   phase     kd      pn
     1      3      2     99      9     0.00   0.66944   3 ;     C1-    C2-    O1-   H32
     1      3      2     99      9     0.00   1.04600   1 ;     C1-    C2-    O1-   H32
     1      3      5      7      9     0.00   0.75312   3 ;     C1-    C2-    C3-    C4
     1      3      5      7      9   180.00   0.83680   1 ;     C1-    C2-    C3-    C4
     1      3      5      7      9   180.00   1.04600   2 ;     C1-    C2-    C3-    C4
     1      3      5     31      9     0.00   0.75312   3 ;     C1-    C2-    C3-   C28
     1      3      5     31      9   180.00   0.83680   1 ;     C1-    C2-    C3-   C28
     1      3      5     31      9   180.00   1.04600   2 ;     C1-    C2-    C3-   C28
     1      3      5     32      9     0.00   0.75312   3 ;     C1-    C2-    C3-   C29
     1      3      5     32      9   180.00   0.83680   1 ;     C1-    C2-    C3-   C29
     1      3      5     32      9   180.00   1.04600   2 ;     C1-    C2-    C3-   C29
     1      9      8      7      9     0.00   0.75312   3 ;     C1-    C6-    C5-    C4
     1      9      8      7      9   180.00   0.83680   1 ;     C1-    C6-    C5-    C4
     1      9      8      7      9   180.00   1.04600   2 ;     C1-    C6-    C5-    C4
     1      9      8     13      9     0.00   0.75312   3 ;     C1-    C6-    C5-   C10
     1      9      8     13      9   180.00   0.83680   1 ;     C1-    C6-    C5-   C10
     1      9      8     13      9   180.00   1.04600   2 ;     C1-    C6-    C5-   C10
     1      9      8     28      9     0.00   0.75312   3 ;     C1-    C6-    C5-   C25
     1      9      8     28      9   180.00   0.83680   1 ;     C1-    C6-    C5-   C25
     1      9      8     28      9   180.00   1.04600   2 ;     C1-    C6-    C5-   C25
     2      3      5      7      9     0.00   0.65084   3 ;     O1-    C2-    C3-    C4
     2      3      5     31      9     0.00   0.65084   3 ;     O1-    C2-    C3-   C28
     2      3      5     32      9     0.00   0.65084   3 ;     O1-    C2-    C3-   C29
     3      1      9      8      9     0.00   0.75312   3 ;     C2-    C1-    C6-    C5
     3      1      9      8      9   180.00   0.83680   1 ;     C2-    C1-    C6-    C5
     3      1      9      8      9   180.00   1.04600   2 ;     C2-    C1-    C6-    C5
     3      1      9     74      9     0.00   0.66944   3 ;     C2-    C1-    C6-    H7
     3      1      9     75      9     0.00   0.66944   3 ;     C2-    C1-    C6-    H8
     3      5      7      8      9     0.00   0.75312   3 ;     C2-    C3-    C4-    C5
     3      5      7      8      9   180.00   0.83680   1 ;     C2-    C3-    C4-    C5
     3      5      7      8      9   180.00   1.04600   2 ;     C2-    C3-    C4-    C5
     3      5      7     10      9     0.00   0.75312   3 ;     C2-    C3-    C4-    C7
     3      5      7     10      9   180.00   0.83680   1 ;     C2-    C3-    C4-    C7
     3      5      7     10      9   180.00   1.04600   2 ;     C2-    C3-    C4-    C7
     3      5      7     70      9     0.00   0.66944   3 ;     C2-    C3-    C4-    H3
     3      5     31    106      9     0.00   0.66944   3 ;     C2-    C3-   C28-   H39
     3      5     31    107      9     0.00   0.66944   3 ;     C2-    C3-   C28-   H40
     3      5     31    108      9     0.00   0.66944   3 ;     C2-    C3-   C28-   H41
     3      5     32    109      9     0.00   0.66944   3 ;     C2-    C3-   C29-   H42
     3      5     32    110      9     0.00   0.66944   3 ;     C2-    C3-   C29-   H43
     3      5     32    111      9     0.00   0.66944   3 ;     C2-    C3-   C29-   H44
     4     26     20     19      9     0.00   0.29288   2 ;     N1-   C23-   C17-   C16
     4     26     20     19      9     0.00   0.41840   4 ;     N1-   C23-   C17-   C16
     4     26     20     21      9     0.00   0.29288   2 ;     N1-   C23-   C17-   C18
     4     26     20     21      9     0.00   0.41840   4 ;     N1-   C23-   C17-   C18
     4     26     20     22      9     0.00   0.29288   2 ;     N1-   C23-   C17-   C19
     4     26     20     22      9     0.00   0.41840   4 ;     N1-   C23-   C17-   C19
     4     34     35     36      9     0.00   0.65084   3 ;     N1-   C31-   C36-    O9
     4     34     35    118      9     0.00   0.65084   3 ;     N1-   C31-   C36-   H63
     4     34     35    119      9     0.00   0.65084   3 ;     N1-   C31-   C36-   H68
     5      3      2     99      9     0.00   0.66944   3 ;     C3-    C2-    O1-   H32
     5      3      2     99      9     0.00   1.04600   1 ;     C3-    C2-    O1-   H32
     5      7      8      9      9     0.00   0.75312   3 ;     C3-    C4-    C5-    C6
     5      7      8      9      9   180.00   0.83680   1 ;     C3-    C4-    C5-    C6
     5      7      8      9      9   180.00   1.04600   2 ;     C3-    C4-    C5-    C6
     5      7      8     13      9     0.00   0.75312   3 ;     C3-    C4-    C5-   C10
     5      7      8     13      9   180.00   0.83680   1 ;     C3-    C4-    C5-   C10
     5      7      8     13      9   180.00   1.04600   2 ;     C3-    C4-    C5-   C10
     5      7      8     28      9     0.00   0.75312   3 ;     C3-    C4-    C5-   C25
     5      7      8     28      9   180.00   0.83680   1 ;     C3-    C4-    C5-   C25
     5      7      8     28      9   180.00   1.04600   2 ;     C3-    C4-    C5-   C25
     5      7     10     11      9     0.00   0.75312   3 ;     C3-    C4-    C7-    C8
     5      7     10     11      9   180.00   0.83680   1 ;     C3-    C4-    C7-    C8
     5      7     10     11      9   180.00   1.04600   2 ;     C3-    C4-    C7-    C8
     5      7     10     76      9     0.00   0.66944   3 ;     C3-    C4-    C7-    H9
     5      7     10     77      9     0.00   0.66944   3 ;     C3-    C4-    C7-   H10
     6     26      4     34      9   180.00  10.46000   2 ;     O3-   C23-    N1-   C31
     6     26      4    115      9     0.00   8.36800   1 ;     O3-   C23-    N1-   H48
     6     26      4    115      9   180.00  10.46000   2 ;     O3-   C23-    N1-   H48
     6     26     20     19      9   180.00   0.00000   2 ;     O3-   C23-   C17-   C16
     6     26     20     21      9   180.00   0.00000   2 ;     O3-   C23-   C17-   C18
     6     26     20     22      9   180.00   0.00000   2 ;     O3-   C23-   C17-   C19
     7      5      3     73      9     0.00   0.65084   3 ;     C4-    C3-    C2-    H6
     7      5     31    106      9     0.00   0.66944   3 ;     C4-    C3-   C28-   H39
     7      5     31    107      9     0.00   0.66944   3 ;     C4-    C3-   C28-   H40
     7      5     31    108      9     0.00   0.66944   3 ;     C4-    C3-   C28-   H41
     7      5     32    109      9     0.00   0.66944   3 ;     C4-    C3-   C29-   H42
     7      5     32    110      9     0.00   0.66944   3 ;     C4-    C3-   C29-   H43
     7      5     32    111      9     0.00   0.66944   3 ;     C4-    C3-   C29-   H44
     7      8      9     74      9     0.00   0.66944   3 ;     C4-    C5-    C6-    H7
     7      8      9     75      9     0.00   0.66944   3 ;     C4-    C5-    C6-    H8
     7      8     13     12      9     0.00   0.75312   3 ;     C4-    C5-   C10-    C9
     7      8     13     12      9   180.00   0.83680   1 ;     C4-    C5-   C10-    C9
     7      8     13     12      9   180.00   1.04600   2 ;     C4-    C5-   C10-    C9
     7      8     13     17      9     0.00   0.75312   3 ;     C4-    C5-   C10-   C14
     7      8     13     17      9   180.00   0.83680   1 ;     C4-    C5-   C10-   C14
     7      8     13     17      9   180.00   1.04600   2 ;     C4-    C5-   C10-   C14
     7      8     13     69      9     0.00   0.66944   3 ;     C4-    C5-   C10-    H2
     7      8     28     96      9     0.00   0.66944   3 ;     C4-    C5-   C25-   H29
     7      8     28     97      9     0.00   0.66944   3 ;     C4-    C5-   C25-   H30
     7      8     28     98      9     0.00   0.66944   3 ;     C4-    C5-   C25-   H31
     7     10     11     12      9     0.00   0.75312   3 ;     C4-    C7-    C8-    C9
     7     10     11     12      9   180.00   0.83680   1 ;     C4-    C7-    C8-    C9
     7     10     11     12      9   180.00   1.04600   2 ;     C4-    C7-    C8-    C9
     7     10     11     78      9     0.00   0.66944   3 ;     C4-    C7-    C8-   H11
     7     10     11     79      9     0.00   0.66944   3 ;     C4-    C7-    C8-   H12
     8      7      5     31      9     0.00   0.75312   3 ;     C5-    C4-    C3-   C28
     8      7      5     31      9   180.00   0.83680   1 ;     C5-    C4-    C3-   C28
     8      7      5     31      9   180.00   1.04600   2 ;     C5-    C4-    C3-   C28
     8      7      5     32      9     0.00   0.75312   3 ;     C5-    C4-    C3-   C29
     8      7      5     32      9   180.00   0.83680   1 ;     C5-    C4-    C3-   C29
     8      7      5     32      9   180.00   1.04600   2 ;     C5-    C4-    C3-   C29
     8      7     10     11      9     0.00   0.75312   3 ;     C5-    C4-    C7-    C8
     8      7     10     11      9   180.00   0.83680   1 ;     C5-    C4-    C7-    C8
     8      7     10     11      9   180.00   1.04600   2 ;     C5-    C4-    C7-    C8
     8      7     10     76      9     0.00   0.66944   3 ;     C5-    C4-    C7-    H9
     8      7     10     77      9     0.00   0.66944   3 ;     C5-    C4-    C7-   H10
     8     13     12     11      9     0.00   0.75312   3 ;     C5-   C10-    C9-    C8
     8     13     12     11      9   180.00   0.83680   1 ;     C5-   C10-    C9-    C8
     8     13     12     11      9   180.00   1.04600   2 ;     C5-   C10-    C9-    C8
     8     13     12     14      9     0.00   0.75312   3 ;     C5-   C10-    C9-   C11
     8     13     12     14      9   180.00   0.83680   1 ;     C5-   C10-    C9-   C11
     8     13     12     14      9   180.00   1.04600   2 ;     C5-   C10-    C9-   C11
     8     13     12     27      9     0.00   0.75312   3 ;     C5-   C10-    C9-   C24
     8     13     12     27      9   180.00   0.83680   1 ;     C5-   C10-    C9-   C24
     8     13     12     27      9   180.00   1.04600   2 ;     C5-   C10-    C9-   C24
     8     13     17     16      9     0.00   0.65084   3 ;     C5-   C10-   C14-   C13
     8     13     17     81      9     0.00   0.66944   3 ;     C5-   C10-   C14-   H14
     8     13     17     82      9     0.00   0.66944   3 ;     C5-   C10-   C14-   H15
     9      1      3      2      9     0.00   0.65084   3 ;     C6-    C1-    C2-    O1
     9      1      3      5      9     0.00   0.75312   3 ;     C6-    C1-    C2-    C3
     9      1      3      5      9   180.00   0.83680   1 ;     C6-    C1-    C2-    C3
     9      1      3      5      9   180.00   1.04600   2 ;     C6-    C1-    C2-    C3
     9      1      3     73      9     0.00   0.65084   3 ;     C6-    C1-    C2-    H6
     9      8      7     10      9     0.00   0.75312   3 ;     C6-    C5-    C4-    C7
     9      8      7     10      9   180.00   0.83680   1 ;     C6-    C5-    C4-    C7
     9      8      7     10      9   180.00   1.04600   2 ;     C6-    C5-    C4-    C7
     9      8      7     70      9     0.00   0.66944   3 ;     C6-    C5-    C4-    H3
     9      8     13     12      9     0.00   0.75312   3 ;     C6-    C5-   C10-    C9
     9      8     13     12      9   180.00   0.83680   1 ;     C6-    C5-   C10-    C9
     9      8     13     12      9   180.00   1.04600   2 ;     C6-    C5-   C10-    C9
     9      8     13     17      9     0.00   0.75312   3 ;     C6-    C5-   C10-   C14
     9      8     13     17      9   180.00   0.83680   1 ;     C6-    C5-   C10-   C14
     9      8     13     17      9   180.00   1.04600   2 ;     C6-    C5-   C10-   C14
     9      8     13     69      9     0.00   0.66944   3 ;     C6-    C5-   C10-    H2
     9      8     28     96      9     0.00   0.66944   3 ;     C6-    C5-   C25-   H29
     9      8     28     97      9     0.00   0.66944   3 ;     C6-    C5-   C25-   H30
     9      8     28     98      9     0.00   0.66944   3 ;     C6-    C5-   C25-   H31
    10      7      5     31      9     0.00   0.75312   3 ;     C7-    C4-    C3-   C28
    10      7      5     31      9   180.00   0.83680   1 ;     C7-    C4-    C3-   C28
    10      7      5     31      9   180.00   1.04600   2 ;     C7-    C4-    C3-   C28
    10      7      5     32      9     0.00   0.75312   3 ;     C7-    C4-    C3-   C29
    10      7      5     32      9   180.00   0.83680   1 ;     C7-    C4-    C3-   C29
    10      7      5     32      9   180.00   1.04600   2 ;     C7-    C4-    C3-   C29
    10      7      8     13      9     0.00   0.75312   3 ;     C7-    C4-    C5-   C10
    10      7      8     13      9   180.00   0.83680   1 ;     C7-    C4-    C5-   C10
    10      7      8     13      9   180.00   1.04600   2 ;     C7-    C4-    C5-   C10
    10      7      8     28      9     0.00   0.75312   3 ;     C7-    C4-    C5-   C25
    10      7      8     28      9   180.00   0.83680   1 ;     C7-    C4-    C5-   C25
    10      7      8     28      9   180.00   1.04600   2 ;     C7-    C4-    C5-   C25
    10     11     12     13      9     0.00   0.75312   3 ;     C7-    C8-    C9-   C10
    10     11     12     13      9   180.00   0.83680   1 ;     C7-    C8-    C9-   C10
    10     11     12     13      9   180.00   1.04600   2 ;     C7-    C8-    C9-   C10
    10     11     12     14      9     0.00   0.75312   3 ;     C7-    C8-    C9-   C11
    10     11     12     14      9   180.00   0.83680   1 ;     C7-    C8-    C9-   C11
    10     11     12     14      9   180.00   1.04600   2 ;     C7-    C8-    C9-   C11
    10     11     12     27      9     0.00   0.75312   3 ;     C7-    C8-    C9-   C24
    10     11     12     27      9   180.00   0.83680   1 ;     C7-    C8-    C9-   C24
    10     11     12     27      9   180.00   1.04600   2 ;     C7-    C8-    C9-   C24
    11     10      7     70      9     0.00   0.66944   3 ;     C8-    C7-    C4-    H3
    11     12     13     17      9     0.00   0.75312   3 ;     C8-    C9-   C10-   C14
    11     12     13     17      9   180.00   0.83680   1 ;     C8-    C9-   C10-   C14
    11     12     13     17      9   180.00   1.04600   2 ;     C8-    C9-   C10-   C14
    11     12     13     69      9     0.00   0.66944   3 ;     C8-    C9-   C10-    H2
    11     12     14     15      9     0.00   0.65084   3 ;     C8-    C9-   C11-   C12
    11     12     14     18      9     0.00   0.75312   3 ;     C8-    C9-   C11-   C15
    11     12     14     18      9   180.00   0.83680   1 ;     C8-    C9-   C11-   C15
    11     12     14     18      9   180.00   1.04600   2 ;     C8-    C9-   C11-   C15
    11     12     14     30      9     0.00   0.75312   3 ;     C8-    C9-   C11-   C27
    11     12     14     30      9   180.00   0.83680   1 ;     C8-    C9-   C11-   C27
    11     12     14     30      9   180.00   1.04600   2 ;     C8-    C9-   C11-   C27
    11     12     27     93      9     0.00   0.66944   3 ;     C8-    C9-   C24-   H26
    11     12     27     94      9     0.00   0.66944   3 ;     C8-    C9-   C24-   H27
    11     12     27     95      9     0.00   0.66944   3 ;     C8-    C9-   C24-   H28
    12     11     10     76      9     0.00   0.66944   3 ;     C9-    C8-    C7-    H9
    12     11     10     77      9     0.00   0.66944   3 ;     C9-    C8-    C7-   H10
    12     13      8     28      9     0.00   0.75312   3 ;     C9-   C10-    C5-   C25
    12     13      8     28      9   180.00   0.83680   1 ;     C9-   C10-    C5-   C25
    12     13      8     28      9   180.00   1.04600   2 ;     C9-   C10-    C5-   C25
    12     13     17     16      9     0.00   0.65084   3 ;     C9-   C10-   C14-   C13
    12     13     17     81      9     0.00   0.66944   3 ;     C9-   C10-   C14-   H14
    12     13     17     82      9     0.00   0.66944   3 ;     C9-   C10-   C14-   H15
    12     14     15     16      9     0.00   0.00000   0 ;     C9-   C11-   C12-   C13
    12     14     15     21      9     0.00   0.00000   0 ;     C9-   C11-   C12-   C18
    12     14     18     19      9     0.00   0.75312   3 ;     C9-   C11-   C15-   C16
    12     14     18     19      9   180.00   0.83680   1 ;     C9-   C11-   C15-   C16
    12     14     18     19      9   180.00   1.04600   2 ;     C9-   C11-   C15-   C16
    12     14     18     83      9     0.00   0.66944   3 ;     C9-   C11-   C15-   H16
    12     14     18     84      9     0.00   0.66944   3 ;     C9-   C11-   C15-   H17
    12     14     30    103      9     0.00   0.66944   3 ;     C9-   C11-   C27-   H36
    12     14     30    104      9     0.00   0.66944   3 ;     C9-   C11-   C27-   H37
    12     14     30    105      9     0.00   0.66944   3 ;     C9-   C11-   C27-   H38
    13      8      7     70      9     0.00   0.66944   3 ;    C10-    C5-    C4-    H3
    13      8      9     74      9     0.00   0.66944   3 ;    C10-    C5-    C6-    H7
    13      8      9     75      9     0.00   0.66944   3 ;    C10-    C5-    C6-    H8
    13      8     28     96      9     0.00   0.66944   3 ;    C10-    C5-   C25-   H29
    13      8     28     97      9     0.00   0.66944   3 ;    C10-    C5-   C25-   H30
    13      8     28     98      9     0.00   0.66944   3 ;    C10-    C5-   C25-   H31
    13     12     11     78      9     0.00   0.66944   3 ;    C10-    C9-    C8-   H11
    13     12     11     79      9     0.00   0.66944   3 ;    C10-    C9-    C8-   H12
    13     12     14     15      9     0.00   0.65084   3 ;    C10-    C9-   C11-   C12
    13     12     14     18      9     0.00   0.75312   3 ;    C10-    C9-   C11-   C15
    13     12     14     18      9   180.00   0.83680   1 ;    C10-    C9-   C11-   C15
    13     12     14     18      9   180.00   1.04600   2 ;    C10-    C9-   C11-   C15
    13     12     14     30      9     0.00   0.75312   3 ;    C10-    C9-   C11-   C27
    13     12     14     30      9   180.00   0.83680   1 ;    C10-    C9-   C11-   C27
    13     12     14     30      9   180.00   1.04600   2 ;    C10-    C9-   C11-   C27
    13     12     27     93      9     0.00   0.66944   3 ;    C10-    C9-   C24-   H26
    13     12     27     94      9     0.00   0.66944   3 ;    C10-    C9-   C24-   H27
    13     12     27     95      9     0.00   0.66944   3 ;    C10-    C9-   C24-   H28
    13     17     16     15      9     0.00   0.00000   0 ;    C10-   C14-   C13-   C12
    13     17     16     80      9     0.00   0.00000   0 ;    C10-   C14-   C13-   H13
    14     12     11     78      9     0.00   0.66944   3 ;    C11-    C9-    C8-   H11
    14     12     11     79      9     0.00   0.66944   3 ;    C11-    C9-    C8-   H12
    14     12     13     17      9     0.00   0.75312   3 ;    C11-    C9-   C10-   C14
    14     12     13     17      9   180.00   0.83680   1 ;    C11-    C9-   C10-   C14
    14     12     13     17      9   180.00   1.04600   2 ;    C11-    C9-   C10-   C14
    14     12     13     69      9     0.00   0.66944   3 ;    C11-    C9-   C10-    H2
    14     12     27     93      9     0.00   0.66944   3 ;    C11-    C9-   C24-   H26
    14     12     27     94      9     0.00   0.66944   3 ;    C11-    C9-   C24-   H27
    14     12     27     95      9     0.00   0.66944   3 ;    C11-    C9-   C24-   H28
    14     15     16     17      9   180.00   7.94960   1 ;    C11-   C12-   C13-   C14
    14     15     16     17      9   180.00  27.82360   2 ;    C11-   C12-   C13-   C14
    14     15     16     80      9   180.00  27.82360   2 ;    C11-   C12-   C13-   H13
    14     15     21     20      9     0.00   0.00000   0 ;    C11-   C12-   C18-   C17
    14     15     21     25      9     0.00   0.00000   0 ;    C11-   C12-   C18-   C22
    14     15     21     68      9     0.00   0.00000   0 ;    C11-   C12-   C18-    H1
    14     18     19     20      9     0.00   0.75312   3 ;    C11-   C15-   C16-   C17
    14     18     19     20      9   180.00   0.83680   1 ;    C11-   C15-   C16-   C17
    14     18     19     20      9   180.00   1.04600   2 ;    C11-   C15-   C16-   C17
    14     18     19     85      9     0.00   0.66944   3 ;    C11-   C15-   C16-   H18
    14     18     19     86      9     0.00   0.66944   3 ;    C11-   C15-   C16-   H19
    15     14     12     27      9     0.00   0.65084   3 ;    C12-   C11-    C9-   C24
    15     14     18     19      9     0.00   0.65084   3 ;    C12-   C11-   C15-   C16
    15     14     18     83      9     0.00   0.65084   3 ;    C12-   C11-   C15-   H16
    15     14     18     84      9     0.00   0.65084   3 ;    C12-   C11-   C15-   H17
    15     14     30    103      9     0.00   0.65084   3 ;    C12-   C11-   C27-   H36
    15     14     30    104      9     0.00   0.65084   3 ;    C12-   C11-   C27-   H37
    15     14     30    105      9     0.00   0.65084   3 ;    C12-   C11-   C27-   H38
    15     16     17     81      9     0.00   0.00000   0 ;    C12-   C13-   C14-   H14
    15     16     17     81      9     0.00   4.81160   1 ;    C12-   C13-   C14-   H14
    15     16     17     81      9   180.00   1.58992   3 ;    C12-   C13-   C14-   H14
    15     16     17     82      9     0.00   0.00000   0 ;    C12-   C13-   C14-   H15
    15     16     17     82      9     0.00   4.81160   1 ;    C12-   C13-   C14-   H15
    15     16     17     82      9   180.00   1.58992   3 ;    C12-   C13-   C14-   H15
    15     21     20     19      9     0.00   0.65084   3 ;    C12-   C18-   C17-   C16
    15     21     20     22      9     0.00   0.65084   3 ;    C12-   C18-   C17-   C19
    15     21     20     26      9     0.00   0.65084   3 ;    C12-   C18-   C17-   C23
    15     21     25     24      9     0.00   0.65084   3 ;    C12-   C18-   C22-   C21
    15     21     25     91      9     0.00   0.65084   3 ;    C12-   C18-   C22-   H24
    15     21     25     92      9     0.00   0.65084   3 ;    C12-   C18-   C22-   H25
    16     15     14     18      9     0.00   0.00000   0 ;    C13-   C12-   C11-   C15
    16     15     14     30      9     0.00   0.00000   0 ;    C13-   C12-   C11-   C27
    16     15     21     20      9     0.00   0.00000   0 ;    C13-   C12-   C18-   C17
    16     15     21     25      9     0.00   0.00000   0 ;    C13-   C12-   C18-   C22
    16     15     21     68      9     0.00   0.00000   0 ;    C13-   C12-   C18-    H1
    16     15     21     68      9     0.00   4.81160   1 ;    C13-   C12-   C18-    H1
    16     15     21     68      9   180.00   1.58992   3 ;    C13-   C12-   C18-    H1
    16     17     13     69      9     0.00   0.65084   3 ;    C13-   C14-   C10-    H2
    17     13      8     28      9     0.00   0.75312   3 ;    C14-   C10-    C5-   C25
    17     13      8     28      9   180.00   0.83680   1 ;    C14-   C10-    C5-   C25
    17     13      8     28      9   180.00   1.04600   2 ;    C14-   C10-    C5-   C25
    17     13     12     27      9     0.00   0.75312   3 ;    C14-   C10-    C9-   C24
    17     13     12     27      9   180.00   0.83680   1 ;    C14-   C10-    C9-   C24
    17     13     12     27      9   180.00   1.04600   2 ;    C14-   C10-    C9-   C24
    17     16     15     21      9   180.00   7.94960   1 ;    C14-   C13-   C12-   C18
    17     16     15     21      9   180.00  27.82360   2 ;    C14-   C13-   C12-   C18
    18     14     12     27      9     0.00   0.75312   3 ;    C15-   C11-    C9-   C24
    18     14     12     27      9   180.00   0.83680   1 ;    C15-   C11-    C9-   C24
    18     14     12     27      9   180.00   1.04600   2 ;    C15-   C11-    C9-   C24
    18     14     15     21      9     0.00   0.00000   0 ;    C15-   C11-   C12-   C18
    18     14     30    103      9     0.00   0.66944   3 ;    C15-   C11-   C27-   H36
    18     14     30    104      9     0.00   0.66944   3 ;    C15-   C11-   C27-   H37
    18     14     30    105      9     0.00   0.66944   3 ;    C15-   C11-   C27-   H38
    18     19     20     21      9     0.00   0.75312   3 ;    C15-   C16-   C17-   C18
    18     19     20     21      9   180.00   0.83680   1 ;    C15-   C16-   C17-   C18
    18     19     20     21      9   180.00   1.04600   2 ;    C15-   C16-   C17-   C18
    18     19     20     22      9     0.00   0.75312   3 ;    C15-   C16-   C17-   C19
    18     19     20     22      9   180.00   0.83680   1 ;    C15-   C16-   C17-   C19
    18     19     20     22      9   180.00   1.04600   2 ;    C15-   C16-   C17-   C19
    18     19     20     26      9     0.00   0.65084   3 ;    C15-   C16-   C17-   C23
    19     18     14     30      9     0.00   0.75312   3 ;    C16-   C15-   C11-   C27
    19     18     14     30      9   180.00   0.83680   1 ;    C16-   C15-   C11-   C27
    19     18     14     30      9   180.00   1.04600   2 ;    C16-   C15-   C11-   C27
    19     20     21     25      9     0.00   0.75312   3 ;    C16-   C17-   C18-   C22
    19     20     21     25      9   180.00   0.83680   1 ;    C16-   C17-   C18-   C22
    19     20     21     25      9   180.00   1.04600   2 ;    C16-   C17-   C18-   C22
    19     20     21     68      9     0.00   0.66944   3 ;    C16-   C17-   C18-    H1
    19     20     22     23      9     0.00   0.75312   3 ;    C16-   C17-   C19-   C20
    19     20     22     23      9   180.00   0.83680   1 ;    C16-   C17-   C19-   C20
    19     20     22     23      9   180.00   1.04600   2 ;    C16-   C17-   C19-   C20
    19     20     22     87      9     0.00   0.66944   3 ;    C16-   C17-   C19-   H20
    19     20     22     88      9     0.00   0.66944   3 ;    C16-   C17-   C19-   H21
    20     19     18     83      9     0.00   0.66944   3 ;    C17-   C16-   C15-   H16
    20     19     18     84      9     0.00   0.66944   3 ;    C17-   C16-   C15-   H17
    20     21     25     24      9     0.00   0.75312   3 ;    C17-   C18-   C22-   C21
    20     21     25     24      9   180.00   0.83680   1 ;    C17-   C18-   C22-   C21
    20     21     25     24      9   180.00   1.04600   2 ;    C17-   C18-   C22-   C21
    20     21     25     91      9     0.00   0.66944   3 ;    C17-   C18-   C22-   H24
    20     21     25     92      9     0.00   0.66944   3 ;    C17-   C18-   C22-   H25
    20     22     23     24      9     0.00   0.75312   3 ;    C17-   C19-   C20-   C21
    20     22     23     24      9   180.00   0.83680   1 ;    C17-   C19-   C20-   C21
    20     22     23     24      9   180.00   1.04600   2 ;    C17-   C19-   C20-   C21
    20     22     23     89      9     0.00   0.66944   3 ;    C17-   C19-   C20-   H22
    20     22     23     90      9     0.00   0.66944   3 ;    C17-   C19-   C20-   H23
    20     26      4     34      9     0.00   0.00000   0 ;    C17-   C23-    N1-   C31
    20     26      4     34      9   180.00   6.27600   1 ;    C17-   C23-    N1-   C31
    20     26      4    115      9   180.00  10.46000   2 ;    C17-   C23-    N1-   H48
    21     15     14     30      9     0.00   0.00000   0 ;    C18-   C12-   C11-   C27
    21     15     16     80      9   180.00  27.82360   2 ;    C18-   C12-   C13-   H13
    21     20     19     85      9     0.00   0.66944   3 ;    C18-   C17-   C16-   H18
    21     20     19     86      9     0.00   0.66944   3 ;    C18-   C17-   C16-   H19
    21     20     22     23      9     0.00   0.75312   3 ;    C18-   C17-   C19-   C20
    21     20     22     23      9   180.00   0.83680   1 ;    C18-   C17-   C19-   C20
    21     20     22     23      9   180.00   1.04600   2 ;    C18-   C17-   C19-   C20
    21     20     22     87      9     0.00   0.66944   3 ;    C18-   C17-   C19-   H20
    21     20     22     88      9     0.00   0.66944   3 ;    C18-   C17-   C19-   H21
    21     25     24     23      9     0.00   0.75312   3 ;    C18-   C22-   C21-   C20
    21     25     24     23      9   180.00   0.83680   1 ;    C18-   C22-   C21-   C20
    21     25     24     23      9   180.00   1.04600   2 ;    C18-   C22-   C21-   C20
    21     25     24     29      9     0.00   0.75312   3 ;    C18-   C22-   C21-   C26
    21     25     24     29      9   180.00   0.83680   1 ;    C18-   C22-   C21-   C26
    21     25     24     29      9   180.00   1.04600   2 ;    C18-   C22-   C21-   C26
    21     25     24     33      9     0.00   0.75312   3 ;    C18-   C22-   C21-   C30
    21     25     24     33      9   180.00   0.83680   1 ;    C18-   C22-   C21-   C30
    21     25     24     33      9   180.00   1.04600   2 ;    C18-   C22-   C21-   C30
    22     20     19     85      9     0.00   0.66944   3 ;    C19-   C17-   C16-   H18
    22     20     19     86      9     0.00   0.66944   3 ;    C19-   C17-   C16-   H19
    22     20     21     25      9     0.00   0.75312   3 ;    C19-   C17-   C18-   C22
    22     20     21     25      9   180.00   0.83680   1 ;    C19-   C17-   C18-   C22
    22     20     21     25      9   180.00   1.04600   2 ;    C19-   C17-   C18-   C22
    22     20     21     68      9     0.00   0.66944   3 ;    C19-   C17-   C18-    H1
    22     23     24     25      9     0.00   0.75312   3 ;    C19-   C20-   C21-   C22
    22     23     24     25      9   180.00   0.83680   1 ;    C19-   C20-   C21-   C22
    22     23     24     25      9   180.00   1.04600   2 ;    C19-   C20-   C21-   C22
    22     23     24     29      9     0.00   0.75312   3 ;    C19-   C20-   C21-   C26
    22     23     24     29      9   180.00   0.83680   1 ;    C19-   C20-   C21-   C26
    22     23     24     29      9   180.00   1.04600   2 ;    C19-   C20-   C21-   C26
    22     23     24     33      9     0.00   0.75312   3 ;    C19-   C20-   C21-   C30
    22     23     24     33      9   180.00   0.83680   1 ;    C19-   C20-   C21-   C30
    22     23     24     33      9   180.00   1.04600   2 ;    C19-   C20-   C21-   C30
    23     22     20     26      9     0.00   0.65084   3 ;    C20-   C19-   C17-   C23
    23     24     25     91      9     0.00   0.66944   3 ;    C20-   C21-   C22-   H24
    23     24     25     92      9     0.00   0.66944   3 ;    C20-   C21-   C22-   H25
    23     24     29    100      9     0.00   0.66944   3 ;    C20-   C21-   C26-   H33
    23     24     29    101      9     0.00   0.66944   3 ;    C20-   C21-   C26-   H34
    23     24     29    102      9     0.00   0.66944   3 ;    C20-   C21-   C26-   H35
    23     24     33    112      9     0.00   0.66944   3 ;    C20-   C21-   C30-   H45
    23     24     33    113      9     0.00   0.66944   3 ;    C20-   C21-   C30-   H46
    23     24     33    114      9     0.00   0.66944   3 ;    C20-   C21-   C30-   H47
    24     23     22     87      9     0.00   0.66944   3 ;    C21-   C20-   C19-   H20
    24     23     22     88      9     0.00   0.66944   3 ;    C21-   C20-   C19-   H21
    24     25     21     68      9     0.00   0.66944   3 ;    C21-   C22-   C18-    H1
    25     21     20     26      9     0.00   0.65084   3 ;    C22-   C18-   C17-   C23
    25     24     23     89      9     0.00   0.66944   3 ;    C22-   C21-   C20-   H22
    25     24     23     90      9     0.00   0.66944   3 ;    C22-   C21-   C20-   H23
    25     24     29    100      9     0.00   0.66944   3 ;    C22-   C21-   C26-   H33
    25     24     29    101      9     0.00   0.66944   3 ;    C22-   C21-   C26-   H34
    25     24     29    102      9     0.00   0.66944   3 ;    C22-   C21-   C26-   H35
    25     24     33    112      9     0.00   0.66944   3 ;    C22-   C21-   C30-   H45
    25     24     33    113      9     0.00   0.66944   3 ;    C22-   C21-   C30-   H46
    25     24     33    114      9     0.00   0.66944   3 ;    C22-   C21-   C30-   H47
    26      4     34     35      9     0.00   0.00000   0 ;    C23-    N1-   C31-   C36
    26      4     34     35      9     0.00   2.21752   1 ;    C23-    N1-   C31-   C36
    26      4     34     35      9   180.00   0.62760   3 ;    C23-    N1-   C31-   C36
    26      4     34     35      9   180.00   2.09200   4 ;    C23-    N1-   C31-   C36
    26      4     34    116      9     0.00   0.00000   0 ;    C23-    N1-   C31-   H53
    26      4     34    117      9     0.00   0.00000   0 ;    C23-    N1-   C31-   H58
    26     20     19     85      9     0.00   0.65084   3 ;    C23-   C17-   C16-   H18
    26     20     19     86      9     0.00   0.65084   3 ;    C23-   C17-   C16-   H19
    26     20     21     68      9     0.00   0.65084   3 ;    C23-   C17-   C18-    H1
    26     20     22     87      9     0.00   0.65084   3 ;    C23-   C17-   C19-   H20
    26     20     22     88      9     0.00   0.65084   3 ;    C23-   C17-   C19-   H21
    27     12     11     78      9     0.00   0.66944   3 ;    C24-    C9-    C8-   H11
    27     12     11     79      9     0.00   0.66944   3 ;    C24-    C9-    C8-   H12
    27     12     13     69      9     0.00   0.66944   3 ;    C24-    C9-   C10-    H2
    27     12     14     30      9     0.00   0.75312   3 ;    C24-    C9-   C11-   C27
    27     12     14     30      9   180.00   0.83680   1 ;    C24-    C9-   C11-   C27
    27     12     14     30      9   180.00   1.04600   2 ;    C24-    C9-   C11-   C27
    28      8      7     70      9     0.00   0.66944   3 ;    C25-    C5-    C4-    H3
    28      8      9     74      9     0.00   0.66944   3 ;    C25-    C5-    C6-    H7
    28      8      9     75      9     0.00   0.66944   3 ;    C25-    C5-    C6-    H8
    28      8     13     69      9     0.00   0.66944   3 ;    C25-    C5-   C10-    H2
    29     24     23     89      9     0.00   0.66944   3 ;    C26-   C21-   C20-   H22
    29     24     23     90      9     0.00   0.66944   3 ;    C26-   C21-   C20-   H23
    29     24     25     91      9     0.00   0.66944   3 ;    C26-   C21-   C22-   H24
    29     24     25     92      9     0.00   0.66944   3 ;    C26-   C21-   C22-   H25
    29     24     33    112      9     0.00   0.66944   3 ;    C26-   C21-   C30-   H45
    29     24     33    113      9     0.00   0.66944   3 ;    C26-   C21-   C30-   H46
    29     24     33    114      9     0.00   0.66944   3 ;    C26-   C21-   C30-   H47
    30     14     18     83      9     0.00   0.66944   3 ;    C27-   C11-   C15-   H16
    30     14     18     84      9     0.00   0.66944   3 ;    C27-   C11-   C15-   H17
    31      5      3     73      9     0.00   0.65084   3 ;    C28-    C3-    C2-    H6
    31      5      7     70      9     0.00   0.66944   3 ;    C28-    C3-    C4-    H3
    31      5     32    109      9     0.00   0.66944   3 ;    C28-    C3-   C29-   H42
    31      5     32    110      9     0.00   0.66944   3 ;    C28-    C3-   C29-   H43
    31      5     32    111      9     0.00   0.66944   3 ;    C28-    C3-   C29-   H44
    32      5      3     73      9     0.00   0.65084   3 ;    C29-    C3-    C2-    H6
    32      5      7     70      9     0.00   0.66944   3 ;    C29-    C3-    C4-    H3
    32      5     31    106      9     0.00   0.66944   3 ;    C29-    C3-   C28-   H39
    32      5     31    107      9     0.00   0.66944   3 ;    C29-    C3-   C28-   H40
    32      5     31    108      9     0.00   0.66944   3 ;    C29-    C3-   C28-   H41
    33     24     23     89      9     0.00   0.66944   3 ;    C30-   C21-   C20-   H22
    33     24     23     90      9     0.00   0.66944   3 ;    C30-   C21-   C20-   H23
    33     24     25     91      9     0.00   0.66944   3 ;    C30-   C21-   C22-   H24
    33     24     25     92      9     0.00   0.66944   3 ;    C30-   C21-   C22-   H25
    33     24     29    100      9     0.00   0.66944   3 ;    C30-   C21-   C26-   H33
    33     24     29    101      9     0.00   0.66944   3 ;    C30-   C21-   C26-   H34
    33     24     29    102      9     0.00   0.66944   3 ;    C30-   C21-   C26-   H35
    34     35     36     37      9     0.00   1.60247   3 ;    C31-   C36-    O9-   C41
    34     35     36     37      9   180.00   0.41840   2 ;    C31-   C36-    O9-   C41
    35     34      4    115      9     0.00   0.00000   0 ;    C36-   C31-    N1-   H48
    35     36     37     38      9     0.00   1.60247   3 ;    C36-    O9-   C41-   C46
    35     36     37     38      9   180.00   0.41840   2 ;    C36-    O9-   C41-   C46
    35     36     37    120      9     0.00   1.60387   3 ;    C36-    O9-   C41-   H73
    35     36     37    121      9     0.00   1.60387   3 ;    C36-    O9-   C41-   H78
    36     35     34    116      9     0.00   0.00000   0 ;     O9-   C36-   C31-   H53
    36     35     34    116      9     0.00   1.04600   1 ;     O9-   C36-   C31-   H53
    36     35     34    117      9     0.00   0.00000   0 ;     O9-   C36-   C31-   H58
    36     35     34    117      9     0.00   1.04600   1 ;     O9-   C36-   C31-   H58
    36     37     38     39      9     0.00   0.60250   3 ;     O9-   C41-   C46-    O2
    36     37     38     39      9     0.00   4.91620   2 ;     O9-   C41-   C46-    O2
    36     37     38    122      9     0.00   0.00000   0 ;     O9-   C41-   C46-   H83
    36     37     38    122      9     0.00   1.04600   1 ;     O9-   C41-   C46-   H83
    36     37     38    123      9     0.00   0.00000   0 ;     O9-   C41-   C46-   H88
    36     37     38    123      9     0.00   1.04600   1 ;     O9-   C41-   C46-   H88
    37     36     35    118      9     0.00   1.60387   3 ;    C41-    O9-   C36-   H63
    37     36     35    119      9     0.00   1.60387   3 ;    C41-    O9-   C36-   H68
    37     38     39     40      9     0.00   1.60247   3 ;    C41-   C46-    O2-   C51
    37     38     39     40      9   180.00   0.41840   2 ;    C41-   C46-    O2-   C51
    38     39     40     41      9     0.00   1.60247   3 ;    C46-    O2-   C51-   C56
    38     39     40     41      9   180.00   0.41840   2 ;    C46-    O2-   C51-   C56
    38     39     40    124      9     0.00   1.60387   3 ;    C46-    O2-   C51-   H93
    38     39     40    125      9     0.00   1.60387   3 ;    C46-    O2-   C51-   H98
    39     38     37    120      9     0.00   0.00000   0 ;     O2-   C46-   C41-   H73
    39     38     37    120      9     0.00   1.04600   1 ;     O2-   C46-   C41-   H73
    39     38     37    121      9     0.00   0.00000   0 ;     O2-   C46-   C41-   H78
    39     38     37    121      9     0.00   1.04600   1 ;     O2-   C46-   C41-   H78
    39     40     41     42      9     0.00   0.60250   3 ;     O2-   C51-   C56-   O14
    39     40     41     42      9     0.00   4.91620   2 ;     O2-   C51-   C56-   O14
    39     40     41    126      9     0.00   0.00000   0 ;     O2-   C51-   C56-  H103
    39     40     41    126      9     0.00   1.04600   1 ;     O2-   C51-   C56-  H103
    39     40     41    127      9     0.00   0.00000   0 ;     O2-   C51-   C56-  H108
    39     40     41    127      9     0.00   1.04600   1 ;     O2-   C51-   C56-  H108
    40     39     38    122      9     0.00   1.60387   3 ;    C51-    O2-   C46-   H83
    40     39     38    123      9     0.00   1.60387   3 ;    C51-    O2-   C46-   H88
    40     41     42     43      9     0.00   1.60247   3 ;    C51-   C56-   O14-   C61
    40     41     42     43      9   180.00   0.41840   2 ;    C51-   C56-   O14-   C61
    41     42     43     44      9     0.00   1.60247   3 ;    C56-   O14-   C61-   C66
    41     42     43     44      9   180.00   0.41840   2 ;    C56-   O14-   C61-   C66
    41     42     43    128      9     0.00   1.60387   3 ;    C56-   O14-   C61-  H113
    41     42     43    129      9     0.00   1.60387   3 ;    C56-   O14-   C61-  H118
    42     41     40    124      9     0.00   0.00000   0 ;    O14-   C56-   C51-   H93
    42     41     40    124      9     0.00   1.04600   1 ;    O14-   C56-   C51-   H93
    42     41     40    125      9     0.00   0.00000   0 ;    O14-   C56-   C51-   H98
    42     41     40    125      9     0.00   1.04600   1 ;    O14-   C56-   C51-   H98
    42     43     44     45      9     0.00   0.60250   3 ;    O14-   C61-   C66-    O4
    42     43     44     45      9     0.00   4.91620   2 ;    O14-   C61-   C66-    O4
    42     43     44    130      9     0.00   0.00000   0 ;    O14-   C61-   C66-  H123
    42     43     44    130      9     0.00   1.04600   1 ;    O14-   C61-   C66-  H123
    42     43     44    131      9     0.00   0.00000   0 ;    O14-   C61-   C66-  H128
    42     43     44    131      9     0.00   1.04600   1 ;    O14-   C61-   C66-  H128
    43     42     41    126      9     0.00   1.60387   3 ;    C61-   O14-   C56-  H103
    43     42     41    127      9     0.00   1.60387   3 ;    C61-   O14-   C56-  H108
    43     44     45     46      9     0.00   1.60247   3 ;    C61-   C66-    O4-   C71
    43     44     45     46      9   180.00   0.41840   2 ;    C61-   C66-    O4-   C71
    44     45     46     47      9     0.00   1.60247   3 ;    C66-    O4-   C71-   C76
    44     45     46     47      9   180.00   0.41840   2 ;    C66-    O4-   C71-   C76
    44     45     46    132      9     0.00   1.60387   3 ;    C66-    O4-   C71-  H133
    44     45     46    133      9     0.00   1.60387   3 ;    C66-    O4-   C71-  H138
    45     44     43    128      9     0.00   0.00000   0 ;     O4-   C66-   C61-  H113
    45     44     43    128      9     0.00   1.04600   1 ;     O4-   C66-   C61-  H113
    45     44     43    129      9     0.00   0.00000   0 ;     O4-   C66-   C61-  H118
    45     44     43    129      9     0.00   1.04600   1 ;     O4-   C66-   C61-  H118
    45     46     47     48      9     0.00   0.60250   3 ;     O4-   C71-   C76-    O5
    45     46     47     48      9     0.00   4.91620   2 ;     O4-   C71-   C76-    O5
    45     46     47    134      9     0.00   0.00000   0 ;     O4-   C71-   C76-  H143
    45     46     47    134      9     0.00   1.04600   1 ;     O4-   C71-   C76-  H143
    45     46     47    135      9     0.00   0.00000   0 ;     O4-   C71-   C76-  H148
    45     46     47    135      9     0.00   1.04600   1 ;     O4-   C71-   C76-  H148
    46     45     44    130      9     0.00   1.60387   3 ;    C71-    O4-   C66-  H123
    46     45     44    131      9     0.00   1.60387   3 ;    C71-    O4-   C66-  H128
    46     47     48     49      9     0.00   1.60247   3 ;    C71-   C76-    O5-   C81
    46     47     48     49      9   180.00   0.41840   2 ;    C71-   C76-    O5-   C81
    47     48     49     50      9     0.00   1.60247   3 ;    C76-    O5-   C81-   C86
    47     48     49     50      9   180.00   0.41840   2 ;    C76-    O5-   C81-   C86
    47     48     49    136      9     0.00   1.60387   3 ;    C76-    O5-   C81-  H153
    47     48     49    137      9     0.00   1.60387   3 ;    C76-    O5-   C81-  H158
    48     47     46    132      9     0.00   0.00000   0 ;     O5-   C76-   C71-  H133
    48     47     46    132      9     0.00   1.04600   1 ;     O5-   C76-   C71-  H133
    48     47     46    133      9     0.00   0.00000   0 ;     O5-   C76-   C71-  H138
    48     47     46    133      9     0.00   1.04600   1 ;     O5-   C76-   C71-  H138
    48     49     50     51      9     0.00   0.65084   3 ;     O5-   C81-   C86-    N2
    48     49     50    138      9     0.00   0.00000   0 ;     O5-   C81-   C86-  H163
    48     49     50    138      9     0.00   1.04600   1 ;     O5-   C81-   C86-  H163
    48     49     50    139      9     0.00   0.00000   0 ;     O5-   C81-   C86-  H168
    48     49     50    139      9     0.00   1.04600   1 ;     O5-   C81-   C86-  H168
    49     48     47    134      9     0.00   1.60387   3 ;    C81-    O5-   C76-  H143
    49     48     47    135      9     0.00   1.60387   3 ;    C81-    O5-   C76-  H148
    49     50     51     52      9     0.00   0.00000   0 ;    C81-   C86-    N2-    N3
    49     50     51     54      9     0.00   0.00000   0 ;    C81-   C86-    N2-   C91
    50     51     52     53      9   180.00  20.08320   2 ;    C86-    N2-    N3-    N4
    50     51     54     55      9   180.00   7.11280   2 ;    C86-    N2-   C91-   C96
    50     51     54    140      9   180.00   7.11280   2 ;    C86-    N2-   C91-  H173
    51     50     49    136      9     0.00   0.65084   3 ;     N2-   C86-   C81-  H153
    51     50     49    137      9     0.00   0.65084   3 ;     N2-   C86-   C81-  H158
    51     52     53     55      9   180.00  16.73600   2 ;     N2-    N3-    N4-   C96
    51     54     55     53      9   180.00  16.73600   2 ;     N2-   C91-   C96-    N4
    51     54     55     56      9   180.00  16.73600   2 ;     N2-   C91-   C96-  C101
    52     51     50    138      9     0.00   0.00000   0 ;     N3-    N2-   C86-  H163
    52     51     50    139      9     0.00   0.00000   0 ;     N3-    N2-   C86-  H168
    52     51     54     55      9   180.00   7.11280   2 ;     N3-    N2-   C91-   C96
    52     51     54    140      9   180.00   7.11280   2 ;     N3-    N2-   C91-  H173
    52     53     55     54      9   180.00  19.87400   2 ;     N3-    N4-   C96-   C91
    52     53     55     56      9   180.00  19.87400   2 ;     N3-    N4-   C96-  C101
    53     52     51     54      9   180.00  20.08320   2 ;     N4-    N3-    N2-   C91
    53     55     54    140      9   180.00  16.73600   2 ;     N4-   C96-   C91-  H173
    53     55     56     57      9     0.00   0.00000   0 ;     N4-   C96-  C101-    O6
    53     55     56    141      9     0.00   0.00000   0 ;     N4-   C96-  C101-  H178
    53     55     56    142      9     0.00   0.00000   0 ;     N4-   C96-  C101-  H183
    54     51     50    138      9     0.00   0.00000   0 ;    C91-    N2-   C86-  H163
    54     51     50    139      9     0.00   0.00000   0 ;    C91-    N2-   C86-  H168
    54     55     56     57      9     0.00   0.00000   0 ;    C91-   C96-  C101-    O6
    54     55     56    141      9     0.00   0.00000   0 ;    C91-   C96-  C101-  H178
    54     55     56    142      9     0.00   0.00000   0 ;    C91-   C96-  C101-  H183
    55     56     57     58      9     0.00   1.60387   3 ;    C96-  C101-    O6-  C104
    56     55     54    140      9   180.00  16.73600   2 ;   C101-   C96-   C91-  H173
    56     57     58     59      9   180.00   3.76560   2 ;   C101-    O6-  C104-  C107
    56     57     58     60      9   180.00   3.76560   2 ;   C101-    O6-  C104-  C110
    57     58     59     63      9   180.00  15.16700   2 ;     O6-  C104-  C107-  C119
    57     58     59    143      9   180.00  15.16700   2 ;     O6-  C104-  C107-  H188
    57     58     60     61      9   180.00  15.16700   2 ;     O6-  C104-  C110-  C113
    57     58     60    144      9   180.00  15.16700   2 ;     O6-  C104-  C110-  H191
    58     57     56    141      9     0.00   1.60387   3 ;   C104-    O6-  C101-  H178
    58     57     56    142      9     0.00   1.60387   3 ;   C104-    O6-  C101-  H183
    58     59     63     62      9   180.00  15.16700   2 ;   C104-  C107-  C119-  C116
    58     59     63     65      9   180.00  15.16700   2 ;   C104-  C107-  C119-    O8
    58     60     61     62      9   180.00  15.16700   2 ;   C104-  C110-  C113-  C116
    58     60     61     64      9   180.00  15.16700   2 ;   C104-  C110-  C113-    O7
    59     58     60     61      9   180.00  15.16700   2 ;   C107-  C104-  C110-  C113
    59     58     60    144      9   180.00  15.16700   2 ;   C107-  C104-  C110-  H191
    59     63     62     61      9   180.00  15.16700   2 ;   C107-  C119-  C116-  C113
    59     63     62    145      9   180.00  15.16700   2 ;   C107-  C119-  C116-  H194
    59     63     65     66      9   180.00   3.76560   2 ;   C107-  C119-    O8-  C122
    60     58     59     63      9   180.00  15.16700   2 ;   C110-  C104-  C107-  C119
    60     58     59    143      9   180.00  15.16700   2 ;   C110-  C104-  C107-  H188
    60     61     62     63      9   180.00  15.16700   2 ;   C110-  C113-  C116-  C119
    60     61     62    145      9   180.00  15.16700   2 ;   C110-  C113-  C116-  H194
    60     61     64     67      9   180.00   3.76560   2 ;   C110-  C113-    O7-  C125
    61     62     63     65      9   180.00  15.16700   2 ;   C113-  C116-  C119-    O8
    61     64     67    329      9     0.00   1.60387   3 ;   C113-    O7-  C125-   C95
    61     64     67    404      9     0.00   1.60387   3 ;   C113-    O7-  C125-  H182
    61     64     67    405      9     0.00   1.60387   3 ;   C113-    O7-  C125-  H187
    62     61     60    144      9   180.00  15.16700   2 ;   C116-  C113-  C110-  H191
    62     61     64     67      9   180.00   3.76560   2 ;   C116-  C113-    O7-  C125
    62     63     59    143      9   180.00  15.16700   2 ;   C116-  C119-  C107-  H188
    62     63     65     66      9   180.00   3.76560   2 ;   C116-  C119-    O8-  C122
    63     62     61     64      9   180.00  15.16700   2 ;   C119-  C116-  C113-    O7
    63     65     66    200      9     0.00   1.60387   3 ;   C119-    O8-  C122-   C98
    63     65     66    274      9     0.00   1.60387   3 ;   C119-    O8-  C122-  H180
    63     65     66    275      9     0.00   1.60387   3 ;   C119-    O8-  C122-  H185
    64     61     60    144      9   180.00  15.16700   2 ;     O7-  C113-  C110-  H191
    64     61     62    145      9   180.00  15.16700   2 ;     O7-  C113-  C116-  H194
    64     67    329    328      9     0.00   0.00000   0 ;     O7-  C125-   C95-   N12
    64     67    329    330      9     0.00   0.00000   0 ;     O7-  C125-   C95-  C100
    65     63     59    143      9   180.00  15.16700   2 ;     O8-  C119-  C107-  H188
    65     63     62    145      9   180.00  15.16700   2 ;     O8-  C119-  C116-  H194
    65     66    200    198      9     0.00   0.00000   0 ;     O8-  C122-   C98-   N11
    65     66    200    199      9     0.00   0.00000   0 ;     O8-  C122-   C98-   C93
    66    200    198    197      9   180.00  19.87400   2 ;   C122-   C98-   N11-    N9
    66    200    199    196      9   180.00  16.73600   2 ;   C122-   C98-   C93-    N7
    66    200    199    273      9   180.00  16.73600   2 ;   C122-   C98-   C93-  H175
    67    329    328    327      9   180.00  19.87400   2 ;   C125-   C95-   N12-   N10
    67    329    330    326      9   180.00  16.73600   2 ;   C125-   C95-  C100-    N8
    67    329    330    403      9   180.00  16.73600   2 ;   C125-   C95-  C100-  H177
    68     21     25     91      9     0.00   0.62760   3 ;     H1-   C18-   C22-   H24
    68     21     25     92      9     0.00   0.62760   3 ;     H1-   C18-   C22-   H25
    69     13     17     81      9     0.00   0.62760   3 ;     H2-   C10-   C14-   H14
    69     13     17     82      9     0.00   0.62760   3 ;     H2-   C10-   C14-   H15
    70      7     10     76      9     0.00   0.62760   3 ;     H3-    C4-    C7-    H9
    70      7     10     77      9     0.00   0.62760   3 ;     H3-    C4-    C7-   H10
    71      1      3      2      9     0.00   0.00000   0 ;     H4-    C1-    C2-    O1
    71      1      3      2      9     0.00   1.04600   1 ;     H4-    C1-    C2-    O1
    71      1      3      5      9     0.00   0.66944   3 ;     H4-    C1-    C2-    C3
    71      1      3     73      9     0.00   0.65084   3 ;     H4-    C1-    C2-    H6
    71      1      9      8      9     0.00   0.66944   3 ;     H4-    C1-    C6-    C5
    71      1      9     74      9     0.00   0.62760   3 ;     H4-    C1-    C6-    H7
    71      1      9     75      9     0.00   0.62760   3 ;     H4-    C1-    C6-    H8
    72      1      3      2      9     0.00   0.00000   0 ;     H5-    C1-    C2-    O1
    72      1      3      2      9     0.00   1.04600   1 ;     H5-    C1-    C2-    O1
    72      1      3      5      9     0.00   0.66944   3 ;     H5-    C1-    C2-    C3
    72      1      3     73      9     0.00   0.65084   3 ;     H5-    C1-    C2-    H6
    72      1      9      8      9     0.00   0.66944   3 ;     H5-    C1-    C6-    C5
    72      1      9     74      9     0.00   0.62760   3 ;     H5-    C1-    C6-    H7
    72      1      9     75      9     0.00   0.62760   3 ;     H5-    C1-    C6-    H8
    73      3      2     99      9     0.00   0.69733   3 ;     H6-    C2-    O1-   H32
    76     10     11     78      9     0.00   0.62760   3 ;     H9-    C7-    C8-   H11
    76     10     11     79      9     0.00   0.62760   3 ;     H9-    C7-    C8-   H12
    77     10     11     78      9     0.00   0.62760   3 ;    H10-    C7-    C8-   H11
    77     10     11     79      9     0.00   0.62760   3 ;    H10-    C7-    C8-   H12
    80     16     17     81      9     0.00   0.00000   0 ;    H13-   C13-   C14-   H14
    80     16     17     82      9     0.00   0.00000   0 ;    H13-   C13-   C14-   H15
    83     18     19     85      9     0.00   0.62760   3 ;    H16-   C15-   C16-   H18
    83     18     19     86      9     0.00   0.62760   3 ;    H16-   C15-   C16-   H19
    84     18     19     85      9     0.00   0.62760   3 ;    H17-   C15-   C16-   H18
    84     18     19     86      9     0.00   0.62760   3 ;    H17-   C15-   C16-   H19
    87     22     23     89      9     0.00   0.62760   3 ;    H20-   C19-   C20-   H22
    87     22     23     90      9     0.00   0.62760   3 ;    H20-   C19-   C20-   H23
    88     22     23     89      9     0.00   0.62760   3 ;    H21-   C19-   C20-   H22
    88     22     23     90      9     0.00   0.62760   3 ;    H21-   C19-   C20-   H23
   115      4     34    116      9     0.00   0.00000   0 ;    H48-    N1-   C31-   H53
   115      4     34    117      9     0.00   0.00000   0 ;    H48-    N1-   C31-   H58
   116     34     35    118      9     0.00   0.65084   3 ;    H53-   C31-   C36-   H63
   116     34     35    119      9     0.00   0.65084   3 ;    H53-   C31-   C36-   H68
   117     34     35    118      9     0.00   0.65084   3 ;    H58-   C31-   C36-   H63
   117     34     35    119      9     0.00   0.65084   3 ;    H58-   C31-   C36-   H68
   120     37     38    122      9     0.00   0.65084   3 ;    H73-   C41-   C46-   H83
   120     37     38    123      9     0.00   0.65084   3 ;    H73-   C41-   C46-   H88
   121     37     38    122      9     0.00   0.65084   3 ;    H78-   C41-   C46-   H83
   121     37     38    123      9     0.00   0.65084   3 ;    H78-   C41-   C46-   H88
   124     40     41    126      9     0.00   0.65084   3 ;    H93-   C51-   C56-  H103
   124     40     41    127      9     0.00   0.65084   3 ;    H93-   C51-   C56-  H108
   125     40     41    126      9     0.00   0.65084   3 ;    H98-   C51-   C56-  H103
   125     40     41    127      9     0.00   0.65084   3 ;    H98-   C51-   C56-  H108
   128     43     44    130      9     0.00   0.65084   3 ;   H113-   C61-   C66-  H123
   128     43     44    131      9     0.00   0.65084   3 ;   H113-   C61-   C66-  H128
   129     43     44    130      9     0.00   0.65084   3 ;   H118-   C61-   C66-  H123
   129     43     44    131      9     0.00   0.65084   3 ;   H118-   C61-   C66-  H128
   132     46     47    134      9     0.00   0.65084   3 ;   H133-   C71-   C76-  H143
   132     46     47    135      9     0.00   0.65084   3 ;   H133-   C71-   C76-  H148
   133     46     47    134      9     0.00   0.65084   3 ;   H138-   C71-   C76-  H143
   133     46     47    135      9     0.00   0.65084   3 ;   H138-   C71-   C76-  H148
   136     49     50    138      9     0.00   0.65084   3 ;   H153-   C81-   C86-  H163
   136     49     50    139      9     0.00   0.65084   3 ;   H153-   C81-   C86-  H168
   137     49     50    138      9     0.00   0.65084   3 ;   H158-   C81-   C86-  H163
   137     49     50    139      9     0.00   0.65084   3 ;   H158-   C81-   C86-  H168
   146    148    147    232      9     0.00   0.66944   3 ;    C32-   C37-   O10-  H197
   146    148    147    232      9     0.00   1.04600   1 ;    C32-   C37-   O10-  H197
   146    148    150    152      9     0.00   0.75312   3 ;    C32-   C37-   C42-   C47
   146    148    150    152      9   180.00   0.83680   1 ;    C32-   C37-   C42-   C47
   146    148    150    152      9   180.00   1.04600   2 ;    C32-   C37-   C42-   C47
   146    148    150    176      9     0.00   0.75312   3 ;    C32-   C37-   C42-  C136
   146    148    150    176      9   180.00   0.83680   1 ;    C32-   C37-   C42-  C136
   146    148    150    176      9   180.00   1.04600   2 ;    C32-   C37-   C42-  C136
   146    148    150    177      9     0.00   0.75312   3 ;    C32-   C37-   C42-  C138
   146    148    150    177      9   180.00   0.83680   1 ;    C32-   C37-   C42-  C138
   146    148    150    177      9   180.00   1.04600   2 ;    C32-   C37-   C42-  C138
   146    154    153    152      9     0.00   0.75312   3 ;    C32-   C57-   C52-   C47
   146    154    153    152      9   180.00   0.83680   1 ;    C32-   C57-   C52-   C47
   146    154    153    152      9   180.00   1.04600   2 ;    C32-   C57-   C52-   C47
   146    154    153    158      9     0.00   0.75312   3 ;    C32-   C57-   C52-   C77
   146    154    153    158      9   180.00   0.83680   1 ;    C32-   C57-   C52-   C77
   146    154    153    158      9   180.00   1.04600   2 ;    C32-   C57-   C52-   C77
   146    154    153    173      9     0.00   0.75312   3 ;    C32-   C57-   C52-  C130
   146    154    153    173      9   180.00   0.83680   1 ;    C32-   C57-   C52-  C130
   146    154    153    173      9   180.00   1.04600   2 ;    C32-   C57-   C52-  C130
   147    148    146    154      9     0.00   0.65084   3 ;    O10-   C37-   C32-   C57
   147    148    146    204      9     0.00   0.00000   0 ;    O10-   C37-   C32-   H64
   147    148    146    204      9     0.00   1.04600   1 ;    O10-   C37-   C32-   H64
   147    148    146    205      9     0.00   0.00000   0 ;    O10-   C37-   C32-   H69
   147    148    146    205      9     0.00   1.04600   1 ;    O10-   C37-   C32-   H69
   147    148    150    152      9     0.00   0.65084   3 ;    O10-   C37-   C42-   C47
   147    148    150    176      9     0.00   0.65084   3 ;    O10-   C37-   C42-  C136
   147    148    150    177      9     0.00   0.65084   3 ;    O10-   C37-   C42-  C138
   148    146    154    153      9     0.00   0.75312   3 ;    C37-   C32-   C57-   C52
   148    146    154    153      9   180.00   0.83680   1 ;    C37-   C32-   C57-   C52
   148    146    154    153      9   180.00   1.04600   2 ;    C37-   C32-   C57-   C52
   148    146    154    207      9     0.00   0.66944   3 ;    C37-   C32-   C57-   H79
   148    146    154    208      9     0.00   0.66944   3 ;    C37-   C32-   C57-   H84
   148    150    152    153      9     0.00   0.75312   3 ;    C37-   C42-   C47-   C52
   148    150    152    153      9   180.00   0.83680   1 ;    C37-   C42-   C47-   C52
   148    150    152    153      9   180.00   1.04600   2 ;    C37-   C42-   C47-   C52
   148    150    152    155      9     0.00   0.75312   3 ;    C37-   C42-   C47-   C62
   148    150    152    155      9   180.00   0.83680   1 ;    C37-   C42-   C47-   C62
   148    150    152    155      9   180.00   1.04600   2 ;    C37-   C42-   C47-   C62
   148    150    152    203      9     0.00   0.66944   3 ;    C37-   C42-   C47-   H59
   148    150    176    239      9     0.00   0.66944   3 ;    C37-   C42-  C136-  H211
   148    150    176    240      9     0.00   0.66944   3 ;    C37-   C42-  C136-  H213
   148    150    176    241      9     0.00   0.66944   3 ;    C37-   C42-  C136-  H215
   148    150    177    242      9     0.00   0.66944   3 ;    C37-   C42-  C138-  H217
   148    150    177    243      9     0.00   0.66944   3 ;    C37-   C42-  C138-  H219
   148    150    177    244      9     0.00   0.66944   3 ;    C37-   C42-  C138-  H221
   149    171    165    164      9     0.00   0.29288   2 ;     N5-  C126-  C108-  C105
   149    171    165    164      9     0.00   0.41840   4 ;     N5-  C126-  C108-  C105
   149    171    165    166      9     0.00   0.29288   2 ;     N5-  C126-  C108-  C111
   149    171    165    166      9     0.00   0.41840   4 ;     N5-  C126-  C108-  C111
   149    171    165    167      9     0.00   0.29288   2 ;     N5-  C126-  C108-  C114
   149    171    165    167      9     0.00   0.41840   4 ;     N5-  C126-  C108-  C114
   149    179    180    181      9     0.00   0.65084   3 ;     N5-   C33-   C38-   O11
   149    179    180    251      9     0.00   0.65084   3 ;     N5-   C33-   C38-   H65
   149    179    180    252      9     0.00   0.65084   3 ;     N5-   C33-   C38-   H70
   150    148    146    154      9     0.00   0.75312   3 ;    C42-   C37-   C32-   C57
   150    148    146    154      9   180.00   0.83680   1 ;    C42-   C37-   C32-   C57
   150    148    146    154      9   180.00   1.04600   2 ;    C42-   C37-   C32-   C57
   150    148    146    204      9     0.00   0.66944   3 ;    C42-   C37-   C32-   H64
   150    148    146    205      9     0.00   0.66944   3 ;    C42-   C37-   C32-   H69
   150    148    147    232      9     0.00   0.66944   3 ;    C42-   C37-   O10-  H197
   150    148    147    232      9     0.00   1.04600   1 ;    C42-   C37-   O10-  H197
   150    152    153    154      9     0.00   0.75312   3 ;    C42-   C47-   C52-   C57
   150    152    153    154      9   180.00   0.83680   1 ;    C42-   C47-   C52-   C57
   150    152    153    154      9   180.00   1.04600   2 ;    C42-   C47-   C52-   C57
   150    152    153    158      9     0.00   0.75312   3 ;    C42-   C47-   C52-   C77
   150    152    153    158      9   180.00   0.83680   1 ;    C42-   C47-   C52-   C77
   150    152    153    158      9   180.00   1.04600   2 ;    C42-   C47-   C52-   C77
   150    152    153    173      9     0.00   0.75312   3 ;    C42-   C47-   C52-  C130
   150    152    153    173      9   180.00   0.83680   1 ;    C42-   C47-   C52-  C130
   150    152    153    173      9   180.00   1.04600   2 ;    C42-   C47-   C52-  C130
   150    152    155    156      9     0.00   0.75312   3 ;    C42-   C47-   C62-   C67
   150    152    155    156      9   180.00   0.83680   1 ;    C42-   C47-   C62-   C67
   150    152    155    156      9   180.00   1.04600   2 ;    C42-   C47-   C62-   C67
   150    152    155    209      9     0.00   0.66944   3 ;    C42-   C47-   C62-   H89
   150    152    155    210      9     0.00   0.66944   3 ;    C42-   C47-   C62-   H94
   151    171    149    179      9   180.00  10.46000   2 ;    O15-  C126-    N5-   C33
   151    171    149    248      9     0.00   8.36800   1 ;    O15-  C126-    N5-   H50
   151    171    149    248      9   180.00  10.46000   2 ;    O15-  C126-    N5-   H50
   151    171    165    164      9   180.00   0.00000   2 ;    O15-  C126-  C108-  C105
   151    171    165    166      9   180.00   0.00000   2 ;    O15-  C126-  C108-  C111
   151    171    165    167      9   180.00   0.00000   2 ;    O15-  C126-  C108-  C114
   152    150    148    206      9     0.00   0.65084   3 ;    C47-   C42-   C37-   H74
   152    150    176    239      9     0.00   0.66944   3 ;    C47-   C42-  C136-  H211
   152    150    176    240      9     0.00   0.66944   3 ;    C47-   C42-  C136-  H213
   152    150    176    241      9     0.00   0.66944   3 ;    C47-   C42-  C136-  H215
   152    150    177    242      9     0.00   0.66944   3 ;    C47-   C42-  C138-  H217
   152    150    177    243      9     0.00   0.66944   3 ;    C47-   C42-  C138-  H219
   152    150    177    244      9     0.00   0.66944   3 ;    C47-   C42-  C138-  H221
   152    153    154    207      9     0.00   0.66944   3 ;    C47-   C52-   C57-   H79
   152    153    154    208      9     0.00   0.66944   3 ;    C47-   C52-   C57-   H84
   152    153    158    157      9     0.00   0.75312   3 ;    C47-   C52-   C77-   C72
   152    153    158    157      9   180.00   0.83680   1 ;    C47-   C52-   C77-   C72
   152    153    158    157      9   180.00   1.04600   2 ;    C47-   C52-   C77-   C72
   152    153    158    162      9     0.00   0.75312   3 ;    C47-   C52-   C77-   C97
   152    153    158    162      9   180.00   0.83680   1 ;    C47-   C52-   C77-   C97
   152    153    158    162      9   180.00   1.04600   2 ;    C47-   C52-   C77-   C97
   152    153    158    202      9     0.00   0.66944   3 ;    C47-   C52-   C77-   H54
   152    153    173    229      9     0.00   0.66944   3 ;    C47-   C52-  C130-  H189
   152    153    173    230      9     0.00   0.66944   3 ;    C47-   C52-  C130-  H192
   152    153    173    231      9     0.00   0.66944   3 ;    C47-   C52-  C130-  H195
   152    155    156    157      9     0.00   0.75312   3 ;    C47-   C62-   C67-   C72
   152    155    156    157      9   180.00   0.83680   1 ;    C47-   C62-   C67-   C72
   152    155    156    157      9   180.00   1.04600   2 ;    C47-   C62-   C67-   C72
   152    155    156    211      9     0.00   0.66944   3 ;    C47-   C62-   C67-   H99
   152    155    156    212      9     0.00   0.66944   3 ;    C47-   C62-   C67-  H104
   153    152    150    176      9     0.00   0.75312   3 ;    C52-   C47-   C42-  C136
   153    152    150    176      9   180.00   0.83680   1 ;    C52-   C47-   C42-  C136
   153    152    150    176      9   180.00   1.04600   2 ;    C52-   C47-   C42-  C136
   153    152    150    177      9     0.00   0.75312   3 ;    C52-   C47-   C42-  C138
   153    152    150    177      9   180.00   0.83680   1 ;    C52-   C47-   C42-  C138
   153    152    150    177      9   180.00   1.04600   2 ;    C52-   C47-   C42-  C138
   153    152    155    156      9     0.00   0.75312   3 ;    C52-   C47-   C62-   C67
   153    152    155    156      9   180.00   0.83680   1 ;    C52-   C47-   C62-   C67
   153    152    155    156      9   180.00   1.04600   2 ;    C52-   C47-   C62-   C67
   153    152    155    209      9     0.00   0.66944   3 ;    C52-   C47-   C62-   H89
   153    152    155    210      9     0.00   0.66944   3 ;    C52-   C47-   C62-   H94
   153    154    146    204      9     0.00   0.66944   3 ;    C52-   C57-   C32-   H64
   153    154    146    205      9     0.00   0.66944   3 ;    C52-   C57-   C32-   H69
   153    158    157    156      9     0.00   0.75312   3 ;    C52-   C77-   C72-   C67
   153    158    157    156      9   180.00   0.83680   1 ;    C52-   C77-   C72-   C67
   153    158    157    156      9   180.00   1.04600   2 ;    C52-   C77-   C72-   C67
   153    158    157    159      9     0.00   0.75312   3 ;    C52-   C77-   C72-   C82
   153    158    157    159      9   180.00   0.83680   1 ;    C52-   C77-   C72-   C82
   153    158    157    159      9   180.00   1.04600   2 ;    C52-   C77-   C72-   C82
   153    158    157    172      9     0.00   0.75312   3 ;    C52-   C77-   C72-  C128
   153    158    157    172      9   180.00   0.83680   1 ;    C52-   C77-   C72-  C128
   153    158    157    172      9   180.00   1.04600   2 ;    C52-   C77-   C72-  C128
   153    158    162    161      9     0.00   0.65084   3 ;    C52-   C77-   C97-   C92
   153    158    162    214      9     0.00   0.66944   3 ;    C52-   C77-   C97-  H114
   153    158    162    215      9     0.00   0.66944   3 ;    C52-   C77-   C97-  H119
   154    146    148    206      9     0.00   0.65084   3 ;    C57-   C32-   C37-   H74
   154    153    152    155      9     0.00   0.75312   3 ;    C57-   C52-   C47-   C62
   154    153    152    155      9   180.00   0.83680   1 ;    C57-   C52-   C47-   C62
   154    153    152    155      9   180.00   1.04600   2 ;    C57-   C52-   C47-   C62
   154    153    152    203      9     0.00   0.66944   3 ;    C57-   C52-   C47-   H59
   154    153    158    157      9     0.00   0.75312   3 ;    C57-   C52-   C77-   C72
   154    153    158    157      9   180.00   0.83680   1 ;    C57-   C52-   C77-   C72
   154    153    158    157      9   180.00   1.04600   2 ;    C57-   C52-   C77-   C72
   154    153    158    162      9     0.00   0.75312   3 ;    C57-   C52-   C77-   C97
   154    153    158    162      9   180.00   0.83680   1 ;    C57-   C52-   C77-   C97
   154    153    158    162      9   180.00   1.04600   2 ;    C57-   C52-   C77-   C97
   154    153    158    202      9     0.00   0.66944   3 ;    C57-   C52-   C77-   H54
   154    153    173    229      9     0.00   0.66944   3 ;    C57-   C52-  C130-  H189
   154    153    173    230      9     0.00   0.66944   3 ;    C57-   C52-  C130-  H192
   154    153    173    231      9     0.00   0.66944   3 ;    C57-   C52-  C130-  H195
   155    152    150    176      9     0.00   0.75312   3 ;    C62-   C47-   C42-  C136
   155    152    150    176      9   180.00   0.83680   1 ;    C62-   C47-   C42-  C136
   155    152    150    176      9   180.00   1.04600   2 ;    C62-   C47-   C42-  C136
   155    152    150    177      9     0.00   0.75312   3 ;    C62-   C47-   C42-  C138
   155    152    150    177      9   180.00   0.83680   1 ;    C62-   C47-   C42-  C138
   155    152    150    177      9   180.00   1.04600   2 ;    C62-   C47-   C42-  C138
   155    152    153    158      9     0.00   0.75312   3 ;    C62-   C47-   C52-   C77
   155    152    153    158      9   180.00   0.83680   1 ;    C62-   C47-   C52-   C77
   155    152    153    158      9   180.00   1.04600   2 ;    C62-   C47-   C52-   C77
   155    152    153    173      9     0.00   0.75312   3 ;    C62-   C47-   C52-  C130
   155    152    153    173      9   180.00   0.83680   1 ;    C62-   C47-   C52-  C130
   155    152    153    173      9   180.00   1.04600   2 ;    C62-   C47-   C52-  C130
   155    156    157    158      9     0.00   0.75312   3 ;    C62-   C67-   C72-   C77
   155    156    157    158      9   180.00   0.83680   1 ;    C62-   C67-   C72-   C77
   155    156    157    158      9   180.00   1.04600   2 ;    C62-   C67-   C72-   C77
   155    156    157    159      9     0.00   0.75312   3 ;    C62-   C67-   C72-   C82
   155    156    157    159      9   180.00   0.83680   1 ;    C62-   C67-   C72-   C82
   155    156    157    159      9   180.00   1.04600   2 ;    C62-   C67-   C72-   C82
   155    156    157    172      9     0.00   0.75312   3 ;    C62-   C67-   C72-  C128
   155    156    157    172      9   180.00   0.83680   1 ;    C62-   C67-   C72-  C128
   155    156    157    172      9   180.00   1.04600   2 ;    C62-   C67-   C72-  C128
   156    155    152    203      9     0.00   0.66944   3 ;    C67-   C62-   C47-   H59
   156    157    158    162      9     0.00   0.75312   3 ;    C67-   C72-   C77-   C97
   156    157    158    162      9   180.00   0.83680   1 ;    C67-   C72-   C77-   C97
   156    157    158    162      9   180.00   1.04600   2 ;    C67-   C72-   C77-   C97
   156    157    158    202      9     0.00   0.66944   3 ;    C67-   C72-   C77-   H54
   156    157    159    160      9     0.00   0.65084   3 ;    C67-   C72-   C82-   C87
   156    157    159    163      9     0.00   0.75312   3 ;    C67-   C72-   C82-  C102
   156    157    159    163      9   180.00   0.83680   1 ;    C67-   C72-   C82-  C102
   156    157    159    163      9   180.00   1.04600   2 ;    C67-   C72-   C82-  C102
   156    157    159    175      9     0.00   0.75312   3 ;    C67-   C72-   C82-  C134
   156    157    159    175      9   180.00   0.83680   1 ;    C67-   C72-   C82-  C134
   156    157    159    175      9   180.00   1.04600   2 ;    C67-   C72-   C82-  C134
   156    157    172    226      9     0.00   0.66944   3 ;    C67-   C72-  C128-  H174
   156    157    172    227      9     0.00   0.66944   3 ;    C67-   C72-  C128-  H179
   156    157    172    228      9     0.00   0.66944   3 ;    C67-   C72-  C128-  H184
   157    156    155    209      9     0.00   0.66944   3 ;    C72-   C67-   C62-   H89
   157    156    155    210      9     0.00   0.66944   3 ;    C72-   C67-   C62-   H94
   157    158    153    173      9     0.00   0.75312   3 ;    C72-   C77-   C52-  C130
   157    158    153    173      9   180.00   0.83680   1 ;    C72-   C77-   C52-  C130
   157    158    153    173      9   180.00   1.04600   2 ;    C72-   C77-   C52-  C130
   157    158    162    161      9     0.00   0.65084   3 ;    C72-   C77-   C97-   C92
   157    158    162    214      9     0.00   0.66944   3 ;    C72-   C77-   C97-  H114
   157    158    162    215      9     0.00   0.66944   3 ;    C72-   C77-   C97-  H119
   157    159    160    161      9     0.00   0.00000   0 ;    C72-   C82-   C87-   C92
   157    159    160    166      9     0.00   0.00000   0 ;    C72-   C82-   C87-  C111
   157    159    163    164      9     0.00   0.75312   3 ;    C72-   C82-  C102-  C105
   157    159    163    164      9   180.00   0.83680   1 ;    C72-   C82-  C102-  C105
   157    159    163    164      9   180.00   1.04600   2 ;    C72-   C82-  C102-  C105
   157    159    163    216      9     0.00   0.66944   3 ;    C72-   C82-  C102-  H124
   157    159    163    217      9     0.00   0.66944   3 ;    C72-   C82-  C102-  H129
   157    159    175    236      9     0.00   0.66944   3 ;    C72-   C82-  C134-  H205
   157    159    175    237      9     0.00   0.66944   3 ;    C72-   C82-  C134-  H207
   157    159    175    238      9     0.00   0.66944   3 ;    C72-   C82-  C134-  H209
   158    153    152    203      9     0.00   0.66944   3 ;    C77-   C52-   C47-   H59
   158    153    154    207      9     0.00   0.66944   3 ;    C77-   C52-   C57-   H79
   158    153    154    208      9     0.00   0.66944   3 ;    C77-   C52-   C57-   H84
   158    153    173    229      9     0.00   0.66944   3 ;    C77-   C52-  C130-  H189
   158    153    173    230      9     0.00   0.66944   3 ;    C77-   C52-  C130-  H192
   158    153    173    231      9     0.00   0.66944   3 ;    C77-   C52-  C130-  H195
   158    157    156    211      9     0.00   0.66944   3 ;    C77-   C72-   C67-   H99
   158    157    156    212      9     0.00   0.66944   3 ;    C77-   C72-   C67-  H104
   158    157    159    160      9     0.00   0.65084   3 ;    C77-   C72-   C82-   C87
   158    157    159    163      9     0.00   0.75312   3 ;    C77-   C72-   C82-  C102
   158    157    159    163      9   180.00   0.83680   1 ;    C77-   C72-   C82-  C102
   158    157    159    163      9   180.00   1.04600   2 ;    C77-   C72-   C82-  C102
   158    157    159    175      9     0.00   0.75312   3 ;    C77-   C72-   C82-  C134
   158    157    159    175      9   180.00   0.83680   1 ;    C77-   C72-   C82-  C134
   158    157    159    175      9   180.00   1.04600   2 ;    C77-   C72-   C82-  C134
   158    157    172    226      9     0.00   0.66944   3 ;    C77-   C72-  C128-  H174
   158    157    172    227      9     0.00   0.66944   3 ;    C77-   C72-  C128-  H179
   158    157    172    228      9     0.00   0.66944   3 ;    C77-   C72-  C128-  H184
   158    162    161    160      9     0.00   0.00000   0 ;    C77-   C97-   C92-   C87
   158    162    161    213      9     0.00   0.00000   0 ;    C77-   C97-   C92-  H109
   159    157    156    211      9     0.00   0.66944   3 ;    C82-   C72-   C67-   H99
   159    157    156    212      9     0.00   0.66944   3 ;    C82-   C72-   C67-  H104
   159    157    158    162      9     0.00   0.75312   3 ;    C82-   C72-   C77-   C97
   159    157    158    162      9   180.00   0.83680   1 ;    C82-   C72-   C77-   C97
   159    157    158    162      9   180.00   1.04600   2 ;    C82-   C72-   C77-   C97
   159    157    158    202      9     0.00   0.66944   3 ;    C82-   C72-   C77-   H54
   159    157    172    226      9     0.00   0.66944   3 ;    C82-   C72-  C128-  H174
   159    157    172    227      9     0.00   0.66944   3 ;    C82-   C72-  C128-  H179
   159    157    172    228      9     0.00   0.66944   3 ;    C82-   C72-  C128-  H184
   159    160    161    162      9   180.00   7.94960   1 ;    C82-   C87-   C92-   C97
   159    160    161    162      9   180.00  27.82360   2 ;    C82-   C87-   C92-   C97
   159    160    161    213      9   180.00  27.82360   2 ;    C82-   C87-   C92-  H109
   159    160    166    165      9     0.00   0.00000   0 ;    C82-   C87-  C111-  C108
   159    160    166    170      9     0.00   0.00000   0 ;    C82-   C87-  C111-  C123
   159    160    166    201      9     0.00   0.00000   0 ;    C82-   C87-  C111-   H49
   159    163    164    165      9     0.00   0.75312   3 ;    C82-  C102-  C105-  C108
   159    163    164    165      9   180.00   0.83680   1 ;    C82-  C102-  C105-  C108
   159    163    164    165      9   180.00   1.04600   2 ;    C82-  C102-  C105-  C108
   159    163    164    218      9     0.00   0.66944   3 ;    C82-  C102-  C105-  H134
   159    163    164    219      9     0.00   0.66944   3 ;    C82-  C102-  C105-  H139
   160    159    157    172      9     0.00   0.65084   3 ;    C87-   C82-   C72-  C128
   160    159    163    164      9     0.00   0.65084   3 ;    C87-   C82-  C102-  C105
   160    159    163    216      9     0.00   0.65084   3 ;    C87-   C82-  C102-  H124
   160    159    163    217      9     0.00   0.65084   3 ;    C87-   C82-  C102-  H129
   160    159    175    236      9     0.00   0.65084   3 ;    C87-   C82-  C134-  H205
   160    159    175    237      9     0.00   0.65084   3 ;    C87-   C82-  C134-  H207
   160    159    175    238      9     0.00   0.65084   3 ;    C87-   C82-  C134-  H209
   160    161    162    214      9     0.00   0.00000   0 ;    C87-   C92-   C97-  H114
   160    161    162    214      9     0.00   4.81160   1 ;    C87-   C92-   C97-  H114
   160    161    162    214      9   180.00   1.58992   3 ;    C87-   C92-   C97-  H114
   160    161    162    215      9     0.00   0.00000   0 ;    C87-   C92-   C97-  H119
   160    161    162    215      9     0.00   4.81160   1 ;    C87-   C92-   C97-  H119
   160    161    162    215      9   180.00   1.58992   3 ;    C87-   C92-   C97-  H119
   160    166    165    164      9     0.00   0.65084   3 ;    C87-  C111-  C108-  C105
   160    166    165    167      9     0.00   0.65084   3 ;    C87-  C111-  C108-  C114
   160    166    165    171      9     0.00   0.65084   3 ;    C87-  C111-  C108-  C126
   160    166    170    169      9     0.00   0.65084   3 ;    C87-  C111-  C123-  C120
   160    166    170    224      9     0.00   0.65084   3 ;    C87-  C111-  C123-  H164
   160    166    170    225      9     0.00   0.65084   3 ;    C87-  C111-  C123-  H169
   161    160    159    163      9     0.00   0.00000   0 ;    C92-   C87-   C82-  C102
   161    160    159    175      9     0.00   0.00000   0 ;    C92-   C87-   C82-  C134
   161    160    166    165      9     0.00   0.00000   0 ;    C92-   C87-  C111-  C108
   161    160    166    170      9     0.00   0.00000   0 ;    C92-   C87-  C111-  C123
   161    160    166    201      9     0.00   0.00000   0 ;    C92-   C87-  C111-   H49
   161    160    166    201      9     0.00   4.81160   1 ;    C92-   C87-  C111-   H49
   161    160    166    201      9   180.00   1.58992   3 ;    C92-   C87-  C111-   H49
   161    162    158    202      9     0.00   0.65084   3 ;    C92-   C97-   C77-   H54
   162    158    153    173      9     0.00   0.75312   3 ;    C97-   C77-   C52-  C130
   162    158    153    173      9   180.00   0.83680   1 ;    C97-   C77-   C52-  C130
   162    158    153    173      9   180.00   1.04600   2 ;    C97-   C77-   C52-  C130
   162    158    157    172      9     0.00   0.75312   3 ;    C97-   C77-   C72-  C128
   162    158    157    172      9   180.00   0.83680   1 ;    C97-   C77-   C72-  C128
   162    158    157    172      9   180.00   1.04600   2 ;    C97-   C77-   C72-  C128
   162    161    160    166      9   180.00   7.94960   1 ;    C97-   C92-   C87-  C111
   162    161    160    166      9   180.00  27.82360   2 ;    C97-   C92-   C87-  C111
   163    159    157    172      9     0.00   0.75312   3 ;   C102-   C82-   C72-  C128
   163    159    157    172      9   180.00   0.83680   1 ;   C102-   C82-   C72-  C128
   163    159    157    172      9   180.00   1.04600   2 ;   C102-   C82-   C72-  C128
   163    159    160    166      9     0.00   0.00000   0 ;   C102-   C82-   C87-  C111
   163    159    175    236      9     0.00   0.66944   3 ;   C102-   C82-  C134-  H205
   163    159    175    237      9     0.00   0.66944   3 ;   C102-   C82-  C134-  H207
   163    159    175    238      9     0.00   0.66944   3 ;   C102-   C82-  C134-  H209
   163    164    165    166      9     0.00   0.75312   3 ;   C102-  C105-  C108-  C111
   163    164    165    166      9   180.00   0.83680   1 ;   C102-  C105-  C108-  C111
   163    164    165    166      9   180.00   1.04600   2 ;   C102-  C105-  C108-  C111
   163    164    165    167      9     0.00   0.75312   3 ;   C102-  C105-  C108-  C114
   163    164    165    167      9   180.00   0.83680   1 ;   C102-  C105-  C108-  C114
   163    164    165    167      9   180.00   1.04600   2 ;   C102-  C105-  C108-  C114
   163    164    165    171      9     0.00   0.65084   3 ;   C102-  C105-  C108-  C126
   164    163    159    175      9     0.00   0.75312   3 ;   C105-  C102-   C82-  C134
   164    163    159    175      9   180.00   0.83680   1 ;   C105-  C102-   C82-  C134
   164    163    159    175      9   180.00   1.04600   2 ;   C105-  C102-   C82-  C134
   164    165    166    170      9     0.00   0.75312   3 ;   C105-  C108-  C111-  C123
   164    165    166    170      9   180.00   0.83680   1 ;   C105-  C108-  C111-  C123
   164    165    166    170      9   180.00   1.04600   2 ;   C105-  C108-  C111-  C123
   164    165    166    201      9     0.00   0.66944   3 ;   C105-  C108-  C111-   H49
   164    165    167    168      9     0.00   0.75312   3 ;   C105-  C108-  C114-  C117
   164    165    167    168      9   180.00   0.83680   1 ;   C105-  C108-  C114-  C117
   164    165    167    168      9   180.00   1.04600   2 ;   C105-  C108-  C114-  C117
   164    165    167    220      9     0.00   0.66944   3 ;   C105-  C108-  C114-  H144
   164    165    167    221      9     0.00   0.66944   3 ;   C105-  C108-  C114-  H149
   165    164    163    216      9     0.00   0.66944   3 ;   C108-  C105-  C102-  H124
   165    164    163    217      9     0.00   0.66944   3 ;   C108-  C105-  C102-  H129
   165    166    170    169      9     0.00   0.75312   3 ;   C108-  C111-  C123-  C120
   165    166    170    169      9   180.00   0.83680   1 ;   C108-  C111-  C123-  C120
   165    166    170    169      9   180.00   1.04600   2 ;   C108-  C111-  C123-  C120
   165    166    170    224      9     0.00   0.66944   3 ;   C108-  C111-  C123-  H164
   165    166    170    225      9     0.00   0.66944   3 ;   C108-  C111-  C123-  H169
   165    167    168    169      9     0.00   0.75312   3 ;   C108-  C114-  C117-  C120
   165    167    168    169      9   180.00   0.83680   1 ;   C108-  C114-  C117-  C120
   165    167    168    169      9   180.00   1.04600   2 ;   C108-  C114-  C117-  C120
   165    167    168    222      9     0.00   0.66944   3 ;   C108-  C114-  C117-  H154
   165    167    168    223      9     0.00   0.66944   3 ;   C108-  C114-  C117-  H159
   165    171    149    179      9     0.00   0.00000   0 ;   C108-  C126-    N5-   C33
   165    171    149    179      9   180.00   6.27600   1 ;   C108-  C126-    N5-   C33
   165    171    149    248      9   180.00  10.46000   2 ;   C108-  C126-    N5-   H50
   166    160    159    175      9     0.00   0.00000   0 ;   C111-   C87-   C82-  C134
   166    160    161    213      9   180.00  27.82360   2 ;   C111-   C87-   C92-  H109
   166    165    164    218      9     0.00   0.66944   3 ;   C111-  C108-  C105-  H134
   166    165    164    219      9     0.00   0.66944   3 ;   C111-  C108-  C105-  H139
   166    165    167    168      9     0.00   0.75312   3 ;   C111-  C108-  C114-  C117
   166    165    167    168      9   180.00   0.83680   1 ;   C111-  C108-  C114-  C117
   166    165    167    168      9   180.00   1.04600   2 ;   C111-  C108-  C114-  C117
   166    165    167    220      9     0.00   0.66944   3 ;   C111-  C108-  C114-  H144
   166    165    167    221      9     0.00   0.66944   3 ;   C111-  C108-  C114-  H149
   166    170    169    168      9     0.00   0.75312   3 ;   C111-  C123-  C120-  C117
   166    170    169    168      9   180.00   0.83680   1 ;   C111-  C123-  C120-  C117
   166    170    169    168      9   180.00   1.04600   2 ;   C111-  C123-  C120-  C117
   166    170    169    174      9     0.00   0.75312   3 ;   C111-  C123-  C120-  C132
   166    170    169    174      9   180.00   0.83680   1 ;   C111-  C123-  C120-  C132
   166    170    169    174      9   180.00   1.04600   2 ;   C111-  C123-  C120-  C132
   166    170    169    178      9     0.00   0.75312   3 ;   C111-  C123-  C120-  C140
   166    170    169    178      9   180.00   0.83680   1 ;   C111-  C123-  C120-  C140
   166    170    169    178      9   180.00   1.04600   2 ;   C111-  C123-  C120-  C140
   167    165    164    218      9     0.00   0.66944   3 ;   C114-  C108-  C105-  H134
   167    165    164    219      9     0.00   0.66944   3 ;   C114-  C108-  C105-  H139
   167    165    166    170      9     0.00   0.75312   3 ;   C114-  C108-  C111-  C123
   167    165    166    170      9   180.00   0.83680   1 ;   C114-  C108-  C111-  C123
   167    165    166    170      9   180.00   1.04600   2 ;   C114-  C108-  C111-  C123
   167    165    166    201      9     0.00   0.66944   3 ;   C114-  C108-  C111-   H49
   167    168    169    170      9     0.00   0.75312   3 ;   C114-  C117-  C120-  C123
   167    168    169    170      9   180.00   0.83680   1 ;   C114-  C117-  C120-  C123
   167    168    169    170      9   180.00   1.04600   2 ;   C114-  C117-  C120-  C123
   167    168    169    174      9     0.00   0.75312   3 ;   C114-  C117-  C120-  C132
   167    168    169    174      9   180.00   0.83680   1 ;   C114-  C117-  C120-  C132
   167    168    169    174      9   180.00   1.04600   2 ;   C114-  C117-  C120-  C132
   167    168    169    178      9     0.00   0.75312   3 ;   C114-  C117-  C120-  C140
   167    168    169    178      9   180.00   0.83680   1 ;   C114-  C117-  C120-  C140
   167    168    169    178      9   180.00   1.04600   2 ;   C114-  C117-  C120-  C140
   168    167    165    171      9     0.00   0.65084   3 ;   C117-  C114-  C108-  C126
   168    169    170    224      9     0.00   0.66944   3 ;   C117-  C120-  C123-  H164
   168    169    170    225      9     0.00   0.66944   3 ;   C117-  C120-  C123-  H169
   168    169    174    233      9     0.00   0.66944   3 ;   C117-  C120-  C132-  H199
   168    169    174    234      9     0.00   0.66944   3 ;   C117-  C120-  C132-  H201
   168    169    174    235      9     0.00   0.66944   3 ;   C117-  C120-  C132-  H203
   168    169    178    245      9     0.00   0.66944   3 ;   C117-  C120-  C140-  H223
   168    169    178    246      9     0.00   0.66944   3 ;   C117-  C120-  C140-  H225
   168    169    178    247      9     0.00   0.66944   3 ;   C117-  C120-  C140-  H227
   169    168    167    220      9     0.00   0.66944   3 ;   C120-  C117-  C114-  H144
   169    168    167    221      9     0.00   0.66944   3 ;   C120-  C117-  C114-  H149
   169    170    166    201      9     0.00   0.66944   3 ;   C120-  C123-  C111-   H49
   170    166    165    171      9     0.00   0.65084   3 ;   C123-  C111-  C108-  C126
   170    169    168    222      9     0.00   0.66944   3 ;   C123-  C120-  C117-  H154
   170    169    168    223      9     0.00   0.66944   3 ;   C123-  C120-  C117-  H159
   170    169    174    233      9     0.00   0.66944   3 ;   C123-  C120-  C132-  H199
   170    169    174    234      9     0.00   0.66944   3 ;   C123-  C120-  C132-  H201
   170    169    174    235      9     0.00   0.66944   3 ;   C123-  C120-  C132-  H203
   170    169    178    245      9     0.00   0.66944   3 ;   C123-  C120-  C140-  H223
   170    169    178    246      9     0.00   0.66944   3 ;   C123-  C120-  C140-  H225
   170    169    178    247      9     0.00   0.66944   3 ;   C123-  C120-  C140-  H227
   171    149    179    180      9     0.00   0.00000   0 ;   C126-    N5-   C33-   C38
   171    149    179    180      9     0.00   2.21752   1 ;   C126-    N5-   C33-   C38
   171    149    179    180      9   180.00   0.62760   3 ;   C126-    N5-   C33-   C38
   171    149    179    180      9   180.00   2.09200   4 ;   C126-    N5-   C33-   C38
   171    149    179    249      9     0.00   0.00000   0 ;   C126-    N5-   C33-   H55
   171    149    179    250      9     0.00   0.00000   0 ;   C126-    N5-   C33-   H60
   171    165    164    218      9     0.00   0.65084   3 ;   C126-  C108-  C105-  H134
   171    165    164    219      9     0.00   0.65084   3 ;   C126-  C108-  C105-  H139
   171    165    166    201      9     0.00   0.65084   3 ;   C126-  C108-  C111-   H49
   171    165    167    220      9     0.00   0.65084   3 ;   C126-  C108-  C114-  H144
   171    165    167    221      9     0.00   0.65084   3 ;   C126-  C108-  C114-  H149
   172    157    156    211      9     0.00   0.66944   3 ;   C128-   C72-   C67-   H99
   172    157    156    212      9     0.00   0.66944   3 ;   C128-   C72-   C67-  H104
   172    157    158    202      9     0.00   0.66944   3 ;   C128-   C72-   C77-   H54
   172    157    159    175      9     0.00   0.75312   3 ;   C128-   C72-   C82-  C134
   172    157    159    175      9   180.00   0.83680   1 ;   C128-   C72-   C82-  C134
   172    157    159    175      9   180.00   1.04600   2 ;   C128-   C72-   C82-  C134
   173    153    152    203      9     0.00   0.66944   3 ;   C130-   C52-   C47-   H59
   173    153    154    207      9     0.00   0.66944   3 ;   C130-   C52-   C57-   H79
   173    153    154    208      9     0.00   0.66944   3 ;   C130-   C52-   C57-   H84
   173    153    158    202      9     0.00   0.66944   3 ;   C130-   C52-   C77-   H54
   174    169    168    222      9     0.00   0.66944   3 ;   C132-  C120-  C117-  H154
   174    169    168    223      9     0.00   0.66944   3 ;   C132-  C120-  C117-  H159
   174    169    170    224      9     0.00   0.66944   3 ;   C132-  C120-  C123-  H164
   174    169    170    225      9     0.00   0.66944   3 ;   C132-  C120-  C123-  H169
   174    169    178    245      9     0.00   0.66944   3 ;   C132-  C120-  C140-  H223
   174    169    178    246      9     0.00   0.66944   3 ;   C132-  C120-  C140-  H225
   174    169    178    247      9     0.00   0.66944   3 ;   C132-  C120-  C140-  H227
   175    159    163    216      9     0.00   0.66944   3 ;   C134-   C82-  C102-  H124
   175    159    163    217      9     0.00   0.66944   3 ;   C134-   C82-  C102-  H129
   176    150    148    206      9     0.00   0.65084   3 ;   C136-   C42-   C37-   H74
   176    150    152    203      9     0.00   0.66944   3 ;   C136-   C42-   C47-   H59
   176    150    177    242      9     0.00   0.66944   3 ;   C136-   C42-  C138-  H217
   176    150    177    243      9     0.00   0.66944   3 ;   C136-   C42-  C138-  H219
   176    150    177    244      9     0.00   0.66944   3 ;   C136-   C42-  C138-  H221
   177    150    148    206      9     0.00   0.65084   3 ;   C138-   C42-   C37-   H74
   177    150    152    203      9     0.00   0.66944   3 ;   C138-   C42-   C47-   H59
   177    150    176    239      9     0.00   0.66944   3 ;   C138-   C42-  C136-  H211
   177    150    176    240      9     0.00   0.66944   3 ;   C138-   C42-  C136-  H213
   177    150    176    241      9     0.00   0.66944   3 ;   C138-   C42-  C136-  H215
   178    169    168    222      9     0.00   0.66944   3 ;   C140-  C120-  C117-  H154
   178    169    168    223      9     0.00   0.66944   3 ;   C140-  C120-  C117-  H159
   178    169    170    224      9     0.00   0.66944   3 ;   C140-  C120-  C123-  H164
   178    169    170    225      9     0.00   0.66944   3 ;   C140-  C120-  C123-  H169
   178    169    174    233      9     0.00   0.66944   3 ;   C140-  C120-  C132-  H199
   178    169    174    234      9     0.00   0.66944   3 ;   C140-  C120-  C132-  H201
   178    169    174    235      9     0.00   0.66944   3 ;   C140-  C120-  C132-  H203
   179    180    181    182      9     0.00   1.60247   3 ;    C33-   C38-   O11-   C43
   179    180    181    182      9   180.00   0.41840   2 ;    C33-   C38-   O11-   C43
   180    179    149    248      9     0.00   0.00000   0 ;    C38-   C33-    N5-   H50
   180    181    182    183      9     0.00   1.60247   3 ;    C38-   O11-   C43-   C48
   180    181    182    183      9   180.00   0.41840   2 ;    C38-   O11-   C43-   C48
   180    181    182    253      9     0.00   1.60387   3 ;    C38-   O11-   C43-   H75
   180    181    182    254      9     0.00   1.60387   3 ;    C38-   O11-   C43-   H80
   181    180    179    249      9     0.00   0.00000   0 ;    O11-   C38-   C33-   H55
   181    180    179    249      9     0.00   1.04600   1 ;    O11-   C38-   C33-   H55
   181    180    179    250      9     0.00   0.00000   0 ;    O11-   C38-   C33-   H60
   181    180    179    250      9     0.00   1.04600   1 ;    O11-   C38-   C33-   H60
   181    182    183    184      9     0.00   0.60250   3 ;    O11-   C43-   C48-   O19
   181    182    183    184      9     0.00   4.91620   2 ;    O11-   C43-   C48-   O19
   181    182    183    255      9     0.00   0.00000   0 ;    O11-   C43-   C48-   H85
   181    182    183    255      9     0.00   1.04600   1 ;    O11-   C43-   C48-   H85
   181    182    183    256      9     0.00   0.00000   0 ;    O11-   C43-   C48-   H90
   181    182    183    256      9     0.00   1.04600   1 ;    O11-   C43-   C48-   H90
   182    181    180    251      9     0.00   1.60387   3 ;    C43-   O11-   C38-   H65
   182    181    180    252      9     0.00   1.60387   3 ;    C43-   O11-   C38-   H70
   182    183    184    185      9     0.00   1.60247   3 ;    C43-   C48-   O19-   C53
   182    183    184    185      9   180.00   0.41840   2 ;    C43-   C48-   O19-   C53
   183    184    185    186      9     0.00   1.60247   3 ;    C48-   O19-   C53-   C58
   183    184    185    186      9   180.00   0.41840   2 ;    C48-   O19-   C53-   C58
   183    184    185    257      9     0.00   1.60387   3 ;    C48-   O19-   C53-   H95
   183    184    185    258      9     0.00   1.60387   3 ;    C48-   O19-   C53-  H100
   184    183    182    253      9     0.00   0.00000   0 ;    O19-   C48-   C43-   H75
   184    183    182    253      9     0.00   1.04600   1 ;    O19-   C48-   C43-   H75
   184    183    182    254      9     0.00   0.00000   0 ;    O19-   C48-   C43-   H80
   184    183    182    254      9     0.00   1.04600   1 ;    O19-   C48-   C43-   H80
   184    185    186    187      9     0.00   0.60250   3 ;    O19-   C53-   C58-   O16
   184    185    186    187      9     0.00   4.91620   2 ;    O19-   C53-   C58-   O16
   184    185    186    259      9     0.00   0.00000   0 ;    O19-   C53-   C58-  H105
   184    185    186    259      9     0.00   1.04600   1 ;    O19-   C53-   C58-  H105
   184    185    186    260      9     0.00   0.00000   0 ;    O19-   C53-   C58-  H110
   184    185    186    260      9     0.00   1.04600   1 ;    O19-   C53-   C58-  H110
   185    184    183    255      9     0.00   1.60387   3 ;    C53-   O19-   C48-   H85
   185    184    183    256      9     0.00   1.60387   3 ;    C53-   O19-   C48-   H90
   185    186    187    188      9     0.00   1.60247   3 ;    C53-   C58-   O16-   C63
   185    186    187    188      9   180.00   0.41840   2 ;    C53-   C58-   O16-   C63
   186    187    188    189      9     0.00   1.60247   3 ;    C58-   O16-   C63-   C68
   186    187    188    189      9   180.00   0.41840   2 ;    C58-   O16-   C63-   C68
   186    187    188    261      9     0.00   1.60387   3 ;    C58-   O16-   C63-  H115
   186    187    188    262      9     0.00   1.60387   3 ;    C58-   O16-   C63-  H120
   187    186    185    257      9     0.00   0.00000   0 ;    O16-   C58-   C53-   H95
   187    186    185    257      9     0.00   1.04600   1 ;    O16-   C58-   C53-   H95
   187    186    185    258      9     0.00   0.00000   0 ;    O16-   C58-   C53-  H100
   187    186    185    258      9     0.00   1.04600   1 ;    O16-   C58-   C53-  H100
   187    188    189    190      9     0.00   0.60250   3 ;    O16-   C63-   C68-   O21
   187    188    189    190      9     0.00   4.91620   2 ;    O16-   C63-   C68-   O21
   187    188    189    263      9     0.00   0.00000   0 ;    O16-   C63-   C68-  H125
   187    188    189    263      9     0.00   1.04600   1 ;    O16-   C63-   C68-  H125
   187    188    189    264      9     0.00   0.00000   0 ;    O16-   C63-   C68-  H130
   187    188    189    264      9     0.00   1.04600   1 ;    O16-   C63-   C68-  H130
   188    187    186    259      9     0.00   1.60387   3 ;    C63-   O16-   C58-  H105
   188    187    186    260      9     0.00   1.60387   3 ;    C63-   O16-   C58-  H110
   188    189    190    191      9     0.00   1.60247   3 ;    C63-   C68-   O21-   C73
   188    189    190    191      9   180.00   0.41840   2 ;    C63-   C68-   O21-   C73
   189    190    191    192      9     0.00   1.60247   3 ;    C68-   O21-   C73-   C78
   189    190    191    192      9   180.00   0.41840   2 ;    C68-   O21-   C73-   C78
   189    190    191    265      9     0.00   1.60387   3 ;    C68-   O21-   C73-  H135
   189    190    191    266      9     0.00   1.60387   3 ;    C68-   O21-   C73-  H140
   190    189    188    261      9     0.00   0.00000   0 ;    O21-   C68-   C63-  H115
   190    189    188    261      9     0.00   1.04600   1 ;    O21-   C68-   C63-  H115
   190    189    188    262      9     0.00   0.00000   0 ;    O21-   C68-   C63-  H120
   190    189    188    262      9     0.00   1.04600   1 ;    O21-   C68-   C63-  H120
   190    191    192    193      9     0.00   0.60250   3 ;    O21-   C73-   C78-   O23
   190    191    192    193      9     0.00   4.91620   2 ;    O21-   C73-   C78-   O23
   190    191    192    267      9     0.00   0.00000   0 ;    O21-   C73-   C78-  H145
   190    191    192    267      9     0.00   1.04600   1 ;    O21-   C73-   C78-  H145
   190    191    192    268      9     0.00   0.00000   0 ;    O21-   C73-   C78-  H150
   190    191    192    268      9     0.00   1.04600   1 ;    O21-   C73-   C78-  H150
   191    190    189    263      9     0.00   1.60387   3 ;    C73-   O21-   C68-  H125
   191    190    189    264      9     0.00   1.60387   3 ;    C73-   O21-   C68-  H130
   191    192    193    194      9     0.00   1.60247   3 ;    C73-   C78-   O23-   C83
   191    192    193    194      9   180.00   0.41840   2 ;    C73-   C78-   O23-   C83
   192    193    194    195      9     0.00   1.60247   3 ;    C78-   O23-   C83-   C88
   192    193    194    195      9   180.00   0.41840   2 ;    C78-   O23-   C83-   C88
   192    193    194    269      9     0.00   1.60387   3 ;    C78-   O23-   C83-  H155
   192    193    194    270      9     0.00   1.60387   3 ;    C78-   O23-   C83-  H160
   193    192    191    265      9     0.00   0.00000   0 ;    O23-   C78-   C73-  H135
   193    192    191    265      9     0.00   1.04600   1 ;    O23-   C78-   C73-  H135
   193    192    191    266      9     0.00   0.00000   0 ;    O23-   C78-   C73-  H140
   193    192    191    266      9     0.00   1.04600   1 ;    O23-   C78-   C73-  H140
   193    194    195    196      9     0.00   0.65084   3 ;    O23-   C83-   C88-    N7
   193    194    195    271      9     0.00   0.00000   0 ;    O23-   C83-   C88-  H165
   193    194    195    271      9     0.00   1.04600   1 ;    O23-   C83-   C88-  H165
   193    194    195    272      9     0.00   0.00000   0 ;    O23-   C83-   C88-  H170
   193    194    195    272      9     0.00   1.04600   1 ;    O23-   C83-   C88-  H170
   194    193    192    267      9     0.00   1.60387   3 ;    C83-   O23-   C78-  H145
   194    193    192    268      9     0.00   1.60387   3 ;    C83-   O23-   C78-  H150
   194    195    196    197      9     0.00   0.00000   0 ;    C83-   C88-    N7-    N9
   194    195    196    199      9     0.00   0.00000   0 ;    C83-   C88-    N7-   C93
   195    196    197    198      9   180.00  20.08320   2 ;    C88-    N7-    N9-   N11
   195    196    199    200      9   180.00   7.11280   2 ;    C88-    N7-   C93-   C98
   195    196    199    273      9   180.00   7.11280   2 ;    C88-    N7-   C93-  H175
   196    195    194    269      9     0.00   0.65084   3 ;     N7-   C88-   C83-  H155
   196    195    194    270      9     0.00   0.65084   3 ;     N7-   C88-   C83-  H160
   196    197    198    200      9   180.00  16.73600   2 ;     N7-    N9-   N11-   C98
   196    199    200    198      9   180.00  16.73600   2 ;     N7-   C93-   C98-   N11
   197    196    195    271      9     0.00   0.00000   0 ;     N9-    N7-   C88-  H165
   197    196    195    272      9     0.00   0.00000   0 ;     N9-    N7-   C88-  H170
   197    196    199    200      9   180.00   7.11280   2 ;     N9-    N7-   C93-   C98
   197    196    199    273      9   180.00   7.11280   2 ;     N9-    N7-   C93-  H175
   197    198    200    199      9   180.00  19.87400   2 ;     N9-   N11-   C98-   C93
   198    197    196    199      9   180.00  20.08320   2 ;    N11-    N9-    N7-   C93
   198    200     66    274      9     0.00   0.00000   0 ;    N11-   C98-  C122-  H180
   198    200     66    275      9     0.00   0.00000   0 ;    N11-   C98-  C122-  H185
   198    200    199    273      9   180.00  16.73600   2 ;    N11-   C98-   C93-  H175
   199    196    195    271      9     0.00   0.00000   0 ;    C93-    N7-   C88-  H165
   199    196    195    272      9     0.00   0.00000   0 ;    C93-    N7-   C88-  H170
   199    200     66    274      9     0.00   0.00000   0 ;    C93-   C98-  C122-  H180
   199    200     66    275      9     0.00   0.00000   0 ;    C93-   C98-  C122-  H185
   201    166    170    224      9     0.00   0.62760   3 ;    H49-  C111-  C123-  H164
   201    166    170    225      9     0.00   0.62760   3 ;    H49-  C111-  C123-  H169
   202    158    162    214      9     0.00   0.62760   3 ;    H54-   C77-   C97-  H114
   202    158    162    215      9     0.00   0.62760   3 ;    H54-   C77-   C97-  H119
   203    152    155    209      9     0.00   0.62760   3 ;    H59-   C47-   C62-   H89
   203    152    155    210      9     0.00   0.62760   3 ;    H59-   C47-   C62-   H94
   204    146    148    206      9     0.00   0.65084   3 ;    H64-   C32-   C37-   H74
   204    146    154    207      9     0.00   0.62760   3 ;    H64-   C32-   C57-   H79
   204    146    154    208      9     0.00   0.62760   3 ;    H64-   C32-   C57-   H84
   205    146    148    206      9     0.00   0.65084   3 ;    H69-   C32-   C37-   H74
   205    146    154    207      9     0.00   0.62760   3 ;    H69-   C32-   C57-   H79
   205    146    154    208      9     0.00   0.62760   3 ;    H69-   C32-   C57-   H84
   206    148    147    232      9     0.00   0.69733   3 ;    H74-   C37-   O10-  H197
   209    155    156    211      9     0.00   0.62760   3 ;    H89-   C62-   C67-   H99
   209    155    156    212      9     0.00   0.62760   3 ;    H89-   C62-   C67-  H104
   210    155    156    211      9     0.00   0.62760   3 ;    H94-   C62-   C67-   H99
   210    155    156    212      9     0.00   0.62760   3 ;    H94-   C62-   C67-  H104
   213    161    162    214      9     0.00   0.00000   0 ;   H109-   C92-   C97-  H114
   213    161    162    215      9     0.00   0.00000   0 ;   H109-   C92-   C97-  H119
   216    163    164    218      9     0.00   0.62760   3 ;   H124-  C102-  C105-  H134
   216    163    164    219      9     0.00   0.62760   3 ;   H124-  C102-  C105-  H139
   217    163    164    218      9     0.00   0.62760   3 ;   H129-  C102-  C105-  H134
   217    163    164    219      9     0.00   0.62760   3 ;   H129-  C102-  C105-  H139
   220    167    168    222      9     0.00   0.62760   3 ;   H144-  C114-  C117-  H154
   220    167    168    223      9     0.00   0.62760   3 ;   H144-  C114-  C117-  H159
   221    167    168    222      9     0.00   0.62760   3 ;   H149-  C114-  C117-  H154
   221    167    168    223      9     0.00   0.62760   3 ;   H149-  C114-  C117-  H159
   248    149    179    249      9     0.00   0.00000   0 ;    H50-    N5-   C33-   H55
   248    149    179    250      9     0.00   0.00000   0 ;    H50-    N5-   C33-   H60
   249    179    180    251      9     0.00   0.65084   3 ;    H55-   C33-   C38-   H65
   249    179    180    252      9     0.00   0.65084   3 ;    H55-   C33-   C38-   H70
   250    179    180    251      9     0.00   0.65084   3 ;    H60-   C33-   C38-   H65
   250    179    180    252      9     0.00   0.65084   3 ;    H60-   C33-   C38-   H70
   253    182    183    255      9     0.00   0.65084   3 ;    H75-   C43-   C48-   H85
   253    182    183    256      9     0.00   0.65084   3 ;    H75-   C43-   C48-   H90
   254    182    183    255      9     0.00   0.65084   3 ;    H80-   C43-   C48-   H85
   254    182    183    256      9     0.00   0.65084   3 ;    H80-   C43-   C48-   H90
   257    185    186    259      9     0.00   0.65084   3 ;    H95-   C53-   C58-  H105
   257    185    186    260      9     0.00   0.65084   3 ;    H95-   C53-   C58-  H110
   258    185    186    259      9     0.00   0.65084   3 ;   H100-   C53-   C58-  H105
   258    185    186    260      9     0.00   0.65084   3 ;   H100-   C53-   C58-  H110
   261    188    189    263      9     0.00   0.65084   3 ;   H115-   C63-   C68-  H125
   261    188    189    264      9     0.00   0.65084   3 ;   H115-   C63-   C68-  H130
   262    188    189    263      9     0.00   0.65084   3 ;   H120-   C63-   C68-  H125
   262    188    189    264      9     0.00   0.65084   3 ;   H120-   C63-   C68-  H130
   265    191    192    267      9     0.00   0.65084   3 ;   H135-   C73-   C78-  H145
   265    191    192    268      9     0.00   0.65084   3 ;   H135-   C73-   C78-  H150
   266    191    192    267      9     0.00   0.65084   3 ;   H140-   C73-   C78-  H145
   266    191    192    268      9     0.00   0.65084   3 ;   H140-   C73-   C78-  H150
   269    194    195    271      9     0.00   0.65084   3 ;   H155-   C83-   C88-  H165
   269    194    195    272      9     0.00   0.65084   3 ;   H155-   C83-   C88-  H170
   270    194    195    271      9     0.00   0.65084   3 ;   H160-   C83-   C88-  H165
   270    194    195    272      9     0.00   0.65084   3 ;   H160-   C83-   C88-  H170
   276    278    277    362      9     0.00   0.66944   3 ;    C34-   C39-   O12-  H198
   276    278    277    362      9     0.00   1.04600   1 ;    C34-   C39-   O12-  H198
   276    278    280    282      9     0.00   0.75312   3 ;    C34-   C39-   C44-   C49
   276    278    280    282      9   180.00   0.83680   1 ;    C34-   C39-   C44-   C49
   276    278    280    282      9   180.00   1.04600   2 ;    C34-   C39-   C44-   C49
   276    278    280    306      9     0.00   0.75312   3 ;    C34-   C39-   C44-  C137
   276    278    280    306      9   180.00   0.83680   1 ;    C34-   C39-   C44-  C137
   276    278    280    306      9   180.00   1.04600   2 ;    C34-   C39-   C44-  C137
   276    278    280    307      9     0.00   0.75312   3 ;    C34-   C39-   C44-  C139
   276    278    280    307      9   180.00   0.83680   1 ;    C34-   C39-   C44-  C139
   276    278    280    307      9   180.00   1.04600   2 ;    C34-   C39-   C44-  C139
   276    284    283    282      9     0.00   0.75312   3 ;    C34-   C59-   C54-   C49
   276    284    283    282      9   180.00   0.83680   1 ;    C34-   C59-   C54-   C49
   276    284    283    282      9   180.00   1.04600   2 ;    C34-   C59-   C54-   C49
   276    284    283    288      9     0.00   0.75312   3 ;    C34-   C59-   C54-   C79
   276    284    283    288      9   180.00   0.83680   1 ;    C34-   C59-   C54-   C79
   276    284    283    288      9   180.00   1.04600   2 ;    C34-   C59-   C54-   C79
   276    284    283    303      9     0.00   0.75312   3 ;    C34-   C59-   C54-  C131
   276    284    283    303      9   180.00   0.83680   1 ;    C34-   C59-   C54-  C131
   276    284    283    303      9   180.00   1.04600   2 ;    C34-   C59-   C54-  C131
   277    278    276    284      9     0.00   0.65084   3 ;    O12-   C39-   C34-   C59
   277    278    276    334      9     0.00   0.00000   0 ;    O12-   C39-   C34-   H66
   277    278    276    334      9     0.00   1.04600   1 ;    O12-   C39-   C34-   H66
   277    278    276    335      9     0.00   0.00000   0 ;    O12-   C39-   C34-   H71
   277    278    276    335      9     0.00   1.04600   1 ;    O12-   C39-   C34-   H71
   277    278    280    282      9     0.00   0.65084   3 ;    O12-   C39-   C44-   C49
   277    278    280    306      9     0.00   0.65084   3 ;    O12-   C39-   C44-  C137
   277    278    280    307      9     0.00   0.65084   3 ;    O12-   C39-   C44-  C139
   278    276    284    283      9     0.00   0.75312   3 ;    C39-   C34-   C59-   C54
   278    276    284    283      9   180.00   0.83680   1 ;    C39-   C34-   C59-   C54
   278    276    284    283      9   180.00   1.04600   2 ;    C39-   C34-   C59-   C54
   278    276    284    337      9     0.00   0.66944   3 ;    C39-   C34-   C59-   H81
   278    276    284    338      9     0.00   0.66944   3 ;    C39-   C34-   C59-   H86
   278    280    282    283      9     0.00   0.75312   3 ;    C39-   C44-   C49-   C54
   278    280    282    283      9   180.00   0.83680   1 ;    C39-   C44-   C49-   C54
   278    280    282    283      9   180.00   1.04600   2 ;    C39-   C44-   C49-   C54
   278    280    282    285      9     0.00   0.75312   3 ;    C39-   C44-   C49-   C64
   278    280    282    285      9   180.00   0.83680   1 ;    C39-   C44-   C49-   C64
   278    280    282    285      9   180.00   1.04600   2 ;    C39-   C44-   C49-   C64
   278    280    282    333      9     0.00   0.66944   3 ;    C39-   C44-   C49-   H61
   278    280    306    369      9     0.00   0.66944   3 ;    C39-   C44-  C137-  H212
   278    280    306    370      9     0.00   0.66944   3 ;    C39-   C44-  C137-  H214
   278    280    306    371      9     0.00   0.66944   3 ;    C39-   C44-  C137-  H216
   278    280    307    372      9     0.00   0.66944   3 ;    C39-   C44-  C139-  H218
   278    280    307    373      9     0.00   0.66944   3 ;    C39-   C44-  C139-  H220
   278    280    307    374      9     0.00   0.66944   3 ;    C39-   C44-  C139-  H222
   279    301    295    294      9     0.00   0.29288   2 ;     N6-  C127-  C109-  C106
   279    301    295    294      9     0.00   0.41840   4 ;     N6-  C127-  C109-  C106
   279    301    295    296      9     0.00   0.29288   2 ;     N6-  C127-  C109-  C112
   279    301    295    296      9     0.00   0.41840   4 ;     N6-  C127-  C109-  C112
   279    301    295    297      9     0.00   0.29288   2 ;     N6-  C127-  C109-  C115
   279    301    295    297      9     0.00   0.41840   4 ;     N6-  C127-  C109-  C115
   279    309    310    311      9     0.00   0.65084   3 ;     N6-   C35-   C40-   O13
   279    309    310    381      9     0.00   0.65084   3 ;     N6-   C35-   C40-   H67
   279    309    310    382      9     0.00   0.65084   3 ;     N6-   C35-   C40-   H72
   280    278    276    284      9     0.00   0.75312   3 ;    C44-   C39-   C34-   C59
   280    278    276    284      9   180.00   0.83680   1 ;    C44-   C39-   C34-   C59
   280    278    276    284      9   180.00   1.04600   2 ;    C44-   C39-   C34-   C59
   280    278    276    334      9     0.00   0.66944   3 ;    C44-   C39-   C34-   H66
   280    278    276    335      9     0.00   0.66944   3 ;    C44-   C39-   C34-   H71
   280    278    277    362      9     0.00   0.66944   3 ;    C44-   C39-   O12-  H198
   280    278    277    362      9     0.00   1.04600   1 ;    C44-   C39-   O12-  H198
   280    282    283    284      9     0.00   0.75312   3 ;    C44-   C49-   C54-   C59
   280    282    283    284      9   180.00   0.83680   1 ;    C44-   C49-   C54-   C59
   280    282    283    284      9   180.00   1.04600   2 ;    C44-   C49-   C54-   C59
   280    282    283    288      9     0.00   0.75312   3 ;    C44-   C49-   C54-   C79
   280    282    283    288      9   180.00   0.83680   1 ;    C44-   C49-   C54-   C79
   280    282    283    288      9   180.00   1.04600   2 ;    C44-   C49-   C54-   C79
   280    282    283    303      9     0.00   0.75312   3 ;    C44-   C49-   C54-  C131
   280    282    283    303      9   180.00   0.83680   1 ;    C44-   C49-   C54-  C131
   280    282    283    303      9   180.00   1.04600   2 ;    C44-   C49-   C54-  C131
   280    282    285    286      9     0.00   0.75312   3 ;    C44-   C49-   C64-   C69
   280    282    285    286      9   180.00   0.83680   1 ;    C44-   C49-   C64-   C69
   280    282    285    286      9   180.00   1.04600   2 ;    C44-   C49-   C64-   C69
   280    282    285    339      9     0.00   0.66944   3 ;    C44-   C49-   C64-   H91
   280    282    285    340      9     0.00   0.66944   3 ;    C44-   C49-   C64-   H96
   281    301    279    309      9   180.00  10.46000   2 ;    O17-  C127-    N6-   C35
   281    301    279    378      9     0.00   8.36800   1 ;    O17-  C127-    N6-   H52
   281    301    279    378      9   180.00  10.46000   2 ;    O17-  C127-    N6-   H52
   281    301    295    294      9   180.00   0.00000   2 ;    O17-  C127-  C109-  C106
   281    301    295    296      9   180.00   0.00000   2 ;    O17-  C127-  C109-  C112
   281    301    295    297      9   180.00   0.00000   2 ;    O17-  C127-  C109-  C115
   282    280    278    336      9     0.00   0.65084   3 ;    C49-   C44-   C39-   H76
   282    280    306    369      9     0.00   0.66944   3 ;    C49-   C44-  C137-  H212
   282    280    306    370      9     0.00   0.66944   3 ;    C49-   C44-  C137-  H214
   282    280    306    371      9     0.00   0.66944   3 ;    C49-   C44-  C137-  H216
   282    280    307    372      9     0.00   0.66944   3 ;    C49-   C44-  C139-  H218
   282    280    307    373      9     0.00   0.66944   3 ;    C49-   C44-  C139-  H220
   282    280    307    374      9     0.00   0.66944   3 ;    C49-   C44-  C139-  H222
   282    283    284    337      9     0.00   0.66944   3 ;    C49-   C54-   C59-   H81
   282    283    284    338      9     0.00   0.66944   3 ;    C49-   C54-   C59-   H86
   282    283    288    287      9     0.00   0.75312   3 ;    C49-   C54-   C79-   C74
   282    283    288    287      9   180.00   0.83680   1 ;    C49-   C54-   C79-   C74
   282    283    288    287      9   180.00   1.04600   2 ;    C49-   C54-   C79-   C74
   282    283    288    292      9     0.00   0.75312   3 ;    C49-   C54-   C79-   C99
   282    283    288    292      9   180.00   0.83680   1 ;    C49-   C54-   C79-   C99
   282    283    288    292      9   180.00   1.04600   2 ;    C49-   C54-   C79-   C99
   282    283    288    332      9     0.00   0.66944   3 ;    C49-   C54-   C79-   H56
   282    283    303    359      9     0.00   0.66944   3 ;    C49-   C54-  C131-  H190
   282    283    303    360      9     0.00   0.66944   3 ;    C49-   C54-  C131-  H193
   282    283    303    361      9     0.00   0.66944   3 ;    C49-   C54-  C131-  H196
   282    285    286    287      9     0.00   0.75312   3 ;    C49-   C64-   C69-   C74
   282    285    286    287      9   180.00   0.83680   1 ;    C49-   C64-   C69-   C74
   282    285    286    287      9   180.00   1.04600   2 ;    C49-   C64-   C69-   C74
   282    285    286    341      9     0.00   0.66944   3 ;    C49-   C64-   C69-  H101
   282    285    286    342      9     0.00   0.66944   3 ;    C49-   C64-   C69-  H106
   283    282    280    306      9     0.00   0.75312   3 ;    C54-   C49-   C44-  C137
   283    282    280    306      9   180.00   0.83680   1 ;    C54-   C49-   C44-  C137
   283    282    280    306      9   180.00   1.04600   2 ;    C54-   C49-   C44-  C137
   283    282    280    307      9     0.00   0.75312   3 ;    C54-   C49-   C44-  C139
   283    282    280    307      9   180.00   0.83680   1 ;    C54-   C49-   C44-  C139
   283    282    280    307      9   180.00   1.04600   2 ;    C54-   C49-   C44-  C139
   283    282    285    286      9     0.00   0.75312   3 ;    C54-   C49-   C64-   C69
   283    282    285    286      9   180.00   0.83680   1 ;    C54-   C49-   C64-   C69
   283    282    285    286      9   180.00   1.04600   2 ;    C54-   C49-   C64-   C69
   283    282    285    339      9     0.00   0.66944   3 ;    C54-   C49-   C64-   H91
   283    282    285    340      9     0.00   0.66944   3 ;    C54-   C49-   C64-   H96
   283    284    276    334      9     0.00   0.66944   3 ;    C54-   C59-   C34-   H66
   283    284    276    335      9     0.00   0.66944   3 ;    C54-   C59-   C34-   H71
   283    288    287    286      9     0.00   0.75312   3 ;    C54-   C79-   C74-   C69
   283    288    287    286      9   180.00   0.83680   1 ;    C54-   C79-   C74-   C69
   283    288    287    286      9   180.00   1.04600   2 ;    C54-   C79-   C74-   C69
   283    288    287    289      9     0.00   0.75312   3 ;    C54-   C79-   C74-   C84
   283    288    287    289      9   180.00   0.83680   1 ;    C54-   C79-   C74-   C84
   283    288    287    289      9   180.00   1.04600   2 ;    C54-   C79-   C74-   C84
   283    288    287    302      9     0.00   0.75312   3 ;    C54-   C79-   C74-  C129
   283    288    287    302      9   180.00   0.83680   1 ;    C54-   C79-   C74-  C129
   283    288    287    302      9   180.00   1.04600   2 ;    C54-   C79-   C74-  C129
   283    288    292    291      9     0.00   0.65084   3 ;    C54-   C79-   C99-   C94
   283    288    292    344      9     0.00   0.66944   3 ;    C54-   C79-   C99-  H116
   283    288    292    345      9     0.00   0.66944   3 ;    C54-   C79-   C99-  H121
   284    276    278    336      9     0.00   0.65084   3 ;    C59-   C34-   C39-   H76
   284    283    282    285      9     0.00   0.75312   3 ;    C59-   C54-   C49-   C64
   284    283    282    285      9   180.00   0.83680   1 ;    C59-   C54-   C49-   C64
   284    283    282    285      9   180.00   1.04600   2 ;    C59-   C54-   C49-   C64
   284    283    282    333      9     0.00   0.66944   3 ;    C59-   C54-   C49-   H61
   284    283    288    287      9     0.00   0.75312   3 ;    C59-   C54-   C79-   C74
   284    283    288    287      9   180.00   0.83680   1 ;    C59-   C54-   C79-   C74
   284    283    288    287      9   180.00   1.04600   2 ;    C59-   C54-   C79-   C74
   284    283    288    292      9     0.00   0.75312   3 ;    C59-   C54-   C79-   C99
   284    283    288    292      9   180.00   0.83680   1 ;    C59-   C54-   C79-   C99
   284    283    288    292      9   180.00   1.04600   2 ;    C59-   C54-   C79-   C99
   284    283    288    332      9     0.00   0.66944   3 ;    C59-   C54-   C79-   H56
   284    283    303    359      9     0.00   0.66944   3 ;    C59-   C54-  C131-  H190
   284    283    303    360      9     0.00   0.66944   3 ;    C59-   C54-  C131-  H193
   284    283    303    361      9     0.00   0.66944   3 ;    C59-   C54-  C131-  H196
   285    282    280    306      9     0.00   0.75312   3 ;    C64-   C49-   C44-  C137
   285    282    280    306      9   180.00   0.83680   1 ;    C64-   C49-   C44-  C137
   285    282    280    306      9   180.00   1.04600   2 ;    C64-   C49-   C44-  C137
   285    282    280    307      9     0.00   0.75312   3 ;    C64-   C49-   C44-  C139
   285    282    280    307      9   180.00   0.83680   1 ;    C64-   C49-   C44-  C139
   285    282    280    307      9   180.00   1.04600   2 ;    C64-   C49-   C44-  C139
   285    282    283    288      9     0.00   0.75312   3 ;    C64-   C49-   C54-   C79
   285    282    283    288      9   180.00   0.83680   1 ;    C64-   C49-   C54-   C79
   285    282    283    288      9   180.00   1.04600   2 ;    C64-   C49-   C54-   C79
   285    282    283    303      9     0.00   0.75312   3 ;    C64-   C49-   C54-  C131
   285    282    283    303      9   180.00   0.83680   1 ;    C64-   C49-   C54-  C131
   285    282    283    303      9   180.00   1.04600   2 ;    C64-   C49-   C54-  C131
   285    286    287    288      9     0.00   0.75312   3 ;    C64-   C69-   C74-   C79
   285    286    287    288      9   180.00   0.83680   1 ;    C64-   C69-   C74-   C79
   285    286    287    288      9   180.00   1.04600   2 ;    C64-   C69-   C74-   C79
   285    286    287    289      9     0.00   0.75312   3 ;    C64-   C69-   C74-   C84
   285    286    287    289      9   180.00   0.83680   1 ;    C64-   C69-   C74-   C84
   285    286    287    289      9   180.00   1.04600   2 ;    C64-   C69-   C74-   C84
   285    286    287    302      9     0.00   0.75312   3 ;    C64-   C69-   C74-  C129
   285    286    287    302      9   180.00   0.83680   1 ;    C64-   C69-   C74-  C129
   285    286    287    302      9   180.00   1.04600   2 ;    C64-   C69-   C74-  C129
   286    285    282    333      9     0.00   0.66944   3 ;    C69-   C64-   C49-   H61
   286    287    288    292      9     0.00   0.75312   3 ;    C69-   C74-   C79-   C99
   286    287    288    292      9   180.00   0.83680   1 ;    C69-   C74-   C79-   C99
   286    287    288    292      9   180.00   1.04600   2 ;    C69-   C74-   C79-   C99
   286    287    288    332      9     0.00   0.66944   3 ;    C69-   C74-   C79-   H56
   286    287    289    290      9     0.00   0.65084   3 ;    C69-   C74-   C84-   C89
   286    287    289    293      9     0.00   0.75312   3 ;    C69-   C74-   C84-  C103
   286    287    289    293      9   180.00   0.83680   1 ;    C69-   C74-   C84-  C103
   286    287    289    293      9   180.00   1.04600   2 ;    C69-   C74-   C84-  C103
   286    287    289    305      9     0.00   0.75312   3 ;    C69-   C74-   C84-  C135
   286    287    289    305      9   180.00   0.83680   1 ;    C69-   C74-   C84-  C135
   286    287    289    305      9   180.00   1.04600   2 ;    C69-   C74-   C84-  C135
   286    287    302    356      9     0.00   0.66944   3 ;    C69-   C74-  C129-  H176
   286    287    302    357      9     0.00   0.66944   3 ;    C69-   C74-  C129-  H181
   286    287    302    358      9     0.00   0.66944   3 ;    C69-   C74-  C129-  H186
   287    286    285    339      9     0.00   0.66944   3 ;    C74-   C69-   C64-   H91
   287    286    285    340      9     0.00   0.66944   3 ;    C74-   C69-   C64-   H96
   287    288    283    303      9     0.00   0.75312   3 ;    C74-   C79-   C54-  C131
   287    288    283    303      9   180.00   0.83680   1 ;    C74-   C79-   C54-  C131
   287    288    283    303      9   180.00   1.04600   2 ;    C74-   C79-   C54-  C131
   287    288    292    291      9     0.00   0.65084   3 ;    C74-   C79-   C99-   C94
   287    288    292    344      9     0.00   0.66944   3 ;    C74-   C79-   C99-  H116
   287    288    292    345      9     0.00   0.66944   3 ;    C74-   C79-   C99-  H121
   287    289    290    291      9     0.00   0.00000   0 ;    C74-   C84-   C89-   C94
   287    289    290    296      9     0.00   0.00000   0 ;    C74-   C84-   C89-  C112
   287    289    293    294      9     0.00   0.75312   3 ;    C74-   C84-  C103-  C106
   287    289    293    294      9   180.00   0.83680   1 ;    C74-   C84-  C103-  C106
   287    289    293    294      9   180.00   1.04600   2 ;    C74-   C84-  C103-  C106
   287    289    293    346      9     0.00   0.66944   3 ;    C74-   C84-  C103-  H126
   287    289    293    347      9     0.00   0.66944   3 ;    C74-   C84-  C103-  H131
   287    289    305    366      9     0.00   0.66944   3 ;    C74-   C84-  C135-  H206
   287    289    305    367      9     0.00   0.66944   3 ;    C74-   C84-  C135-  H208
   287    289    305    368      9     0.00   0.66944   3 ;    C74-   C84-  C135-  H210
   288    283    282    333      9     0.00   0.66944   3 ;    C79-   C54-   C49-   H61
   288    283    284    337      9     0.00   0.66944   3 ;    C79-   C54-   C59-   H81
   288    283    284    338      9     0.00   0.66944   3 ;    C79-   C54-   C59-   H86
   288    283    303    359      9     0.00   0.66944   3 ;    C79-   C54-  C131-  H190
   288    283    303    360      9     0.00   0.66944   3 ;    C79-   C54-  C131-  H193
   288    283    303    361      9     0.00   0.66944   3 ;    C79-   C54-  C131-  H196
   288    287    286    341      9     0.00   0.66944   3 ;    C79-   C74-   C69-  H101
   288    287    286    342      9     0.00   0.66944   3 ;    C79-   C74-   C69-  H106
   288    287    289    290      9     0.00   0.65084   3 ;    C79-   C74-   C84-   C89
   288    287    289    293      9     0.00   0.75312   3 ;    C79-   C74-   C84-  C103
   288    287    289    293      9   180.00   0.83680   1 ;    C79-   C74-   C84-  C103
   288    287    289    293      9   180.00   1.04600   2 ;    C79-   C74-   C84-  C103
   288    287    289    305      9     0.00   0.75312   3 ;    C79-   C74-   C84-  C135
   288    287    289    305      9   180.00   0.83680   1 ;    C79-   C74-   C84-  C135
   288    287    289    305      9   180.00   1.04600   2 ;    C79-   C74-   C84-  C135
   288    287    302    356      9     0.00   0.66944   3 ;    C79-   C74-  C129-  H176
   288    287    302    357      9     0.00   0.66944   3 ;    C79-   C74-  C129-  H181
   288    287    302    358      9     0.00   0.66944   3 ;    C79-   C74-  C129-  H186
   288    292    291    290      9     0.00   0.00000   0 ;    C79-   C99-   C94-   C89
   288    292    291    343      9     0.00   0.00000   0 ;    C79-   C99-   C94-  H111
   289    287    286    341      9     0.00   0.66944   3 ;    C84-   C74-   C69-  H101
   289    287    286    342      9     0.00   0.66944   3 ;    C84-   C74-   C69-  H106
   289    287    288    292      9     0.00   0.75312   3 ;    C84-   C74-   C79-   C99
   289    287    288    292      9   180.00   0.83680   1 ;    C84-   C74-   C79-   C99
   289    287    288    292      9   180.00   1.04600   2 ;    C84-   C74-   C79-   C99
   289    287    288    332      9     0.00   0.66944   3 ;    C84-   C74-   C79-   H56
   289    287    302    356      9     0.00   0.66944   3 ;    C84-   C74-  C129-  H176
   289    287    302    357      9     0.00   0.66944   3 ;    C84-   C74-  C129-  H181
   289    287    302    358      9     0.00   0.66944   3 ;    C84-   C74-  C129-  H186
   289    290    291    292      9   180.00   7.94960   1 ;    C84-   C89-   C94-   C99
   289    290    291    292      9   180.00  27.82360   2 ;    C84-   C89-   C94-   C99
   289    290    291    343      9   180.00  27.82360   2 ;    C84-   C89-   C94-  H111
   289    290    296    295      9     0.00   0.00000   0 ;    C84-   C89-  C112-  C109
   289    290    296    300      9     0.00   0.00000   0 ;    C84-   C89-  C112-  C124
   289    290    296    331      9     0.00   0.00000   0 ;    C84-   C89-  C112-   H51
   289    293    294    295      9     0.00   0.75312   3 ;    C84-  C103-  C106-  C109
   289    293    294    295      9   180.00   0.83680   1 ;    C84-  C103-  C106-  C109
   289    293    294    295      9   180.00   1.04600   2 ;    C84-  C103-  C106-  C109
   289    293    294    348      9     0.00   0.66944   3 ;    C84-  C103-  C106-  H136
   289    293    294    349      9     0.00   0.66944   3 ;    C84-  C103-  C106-  H141
   290    289    287    302      9     0.00   0.65084   3 ;    C89-   C84-   C74-  C129
   290    289    293    294      9     0.00   0.65084   3 ;    C89-   C84-  C103-  C106
   290    289    293    346      9     0.00   0.65084   3 ;    C89-   C84-  C103-  H126
   290    289    293    347      9     0.00   0.65084   3 ;    C89-   C84-  C103-  H131
   290    289    305    366      9     0.00   0.65084   3 ;    C89-   C84-  C135-  H206
   290    289    305    367      9     0.00   0.65084   3 ;    C89-   C84-  C135-  H208
   290    289    305    368      9     0.00   0.65084   3 ;    C89-   C84-  C135-  H210
   290    291    292    344      9     0.00   0.00000   0 ;    C89-   C94-   C99-  H116
   290    291    292    344      9     0.00   4.81160   1 ;    C89-   C94-   C99-  H116
   290    291    292    344      9   180.00   1.58992   3 ;    C89-   C94-   C99-  H116
   290    291    292    345      9     0.00   0.00000   0 ;    C89-   C94-   C99-  H121
   290    291    292    345      9     0.00   4.81160   1 ;    C89-   C94-   C99-  H121
   290    291    292    345      9   180.00   1.58992   3 ;    C89-   C94-   C99-  H121
   290    296    295    294      9     0.00   0.65084   3 ;    C89-  C112-  C109-  C106
   290    296    295    297      9     0.00   0.65084   3 ;    C89-  C112-  C109-  C115
   290    296    295    301      9     0.00   0.65084   3 ;    C89-  C112-  C109-  C127
   290    296    300    299      9     0.00   0.65084   3 ;    C89-  C112-  C124-  C121
   290    296    300    354      9     0.00   0.65084   3 ;    C89-  C112-  C124-  H166
   290    296    300    355      9     0.00   0.65084   3 ;    C89-  C112-  C124-  H171
   291    290    289    293      9     0.00   0.00000   0 ;    C94-   C89-   C84-  C103
   291    290    289    305      9     0.00   0.00000   0 ;    C94-   C89-   C84-  C135
   291    290    296    295      9     0.00   0.00000   0 ;    C94-   C89-  C112-  C109
   291    290    296    300      9     0.00   0.00000   0 ;    C94-   C89-  C112-  C124
   291    290    296    331      9     0.00   0.00000   0 ;    C94-   C89-  C112-   H51
   291    290    296    331      9     0.00   4.81160   1 ;    C94-   C89-  C112-   H51
   291    290    296    331      9   180.00   1.58992   3 ;    C94-   C89-  C112-   H51
   291    292    288    332      9     0.00   0.65084   3 ;    C94-   C99-   C79-   H56
   292    288    283    303      9     0.00   0.75312   3 ;    C99-   C79-   C54-  C131
   292    288    283    303      9   180.00   0.83680   1 ;    C99-   C79-   C54-  C131
   292    288    283    303      9   180.00   1.04600   2 ;    C99-   C79-   C54-  C131
   292    288    287    302      9     0.00   0.75312   3 ;    C99-   C79-   C74-  C129
   292    288    287    302      9   180.00   0.83680   1 ;    C99-   C79-   C74-  C129
   292    288    287    302      9   180.00   1.04600   2 ;    C99-   C79-   C74-  C129
   292    291    290    296      9   180.00   7.94960   1 ;    C99-   C94-   C89-  C112
   292    291    290    296      9   180.00  27.82360   2 ;    C99-   C94-   C89-  C112
   293    289    287    302      9     0.00   0.75312   3 ;   C103-   C84-   C74-  C129
   293    289    287    302      9   180.00   0.83680   1 ;   C103-   C84-   C74-  C129
   293    289    287    302      9   180.00   1.04600   2 ;   C103-   C84-   C74-  C129
   293    289    290    296      9     0.00   0.00000   0 ;   C103-   C84-   C89-  C112
   293    289    305    366      9     0.00   0.66944   3 ;   C103-   C84-  C135-  H206
   293    289    305    367      9     0.00   0.66944   3 ;   C103-   C84-  C135-  H208
   293    289    305    368      9     0.00   0.66944   3 ;   C103-   C84-  C135-  H210
   293    294    295    296      9     0.00   0.75312   3 ;   C103-  C106-  C109-  C112
   293    294    295    296      9   180.00   0.83680   1 ;   C103-  C106-  C109-  C112
   293    294    295    296      9   180.00   1.04600   2 ;   C103-  C106-  C109-  C112
   293    294    295    297      9     0.00   0.75312   3 ;   C103-  C106-  C109-  C115
   293    294    295    297      9   180.00   0.83680   1 ;   C103-  C106-  C109-  C115
   293    294    295    297      9   180.00   1.04600   2 ;   C103-  C106-  C109-  C115
   293    294    295    301      9     0.00   0.65084   3 ;   C103-  C106-  C109-  C127
   294    293    289    305      9     0.00   0.75312   3 ;   C106-  C103-   C84-  C135
   294    293    289    305      9   180.00   0.83680   1 ;   C106-  C103-   C84-  C135
   294    293    289    305      9   180.00   1.04600   2 ;   C106-  C103-   C84-  C135
   294    295    296    300      9     0.00   0.75312   3 ;   C106-  C109-  C112-  C124
   294    295    296    300      9   180.00   0.83680   1 ;   C106-  C109-  C112-  C124
   294    295    296    300      9   180.00   1.04600   2 ;   C106-  C109-  C112-  C124
   294    295    296    331      9     0.00   0.66944   3 ;   C106-  C109-  C112-   H51
   294    295    297    298      9     0.00   0.75312   3 ;   C106-  C109-  C115-  C118
   294    295    297    298      9   180.00   0.83680   1 ;   C106-  C109-  C115-  C118
   294    295    297    298      9   180.00   1.04600   2 ;   C106-  C109-  C115-  C118
   294    295    297    350      9     0.00   0.66944   3 ;   C106-  C109-  C115-  H146
   294    295    297    351      9     0.00   0.66944   3 ;   C106-  C109-  C115-  H151
   295    294    293    346      9     0.00   0.66944   3 ;   C109-  C106-  C103-  H126
   295    294    293    347      9     0.00   0.66944   3 ;   C109-  C106-  C103-  H131
   295    296    300    299      9     0.00   0.75312   3 ;   C109-  C112-  C124-  C121
   295    296    300    299      9   180.00   0.83680   1 ;   C109-  C112-  C124-  C121
   295    296    300    299      9   180.00   1.04600   2 ;   C109-  C112-  C124-  C121
   295    296    300    354      9     0.00   0.66944   3 ;   C109-  C112-  C124-  H166
   295    296    300    355      9     0.00   0.66944   3 ;   C109-  C112-  C124-  H171
   295    297    298    299      9     0.00   0.75312   3 ;   C109-  C115-  C118-  C121
   295    297    298    299      9   180.00   0.83680   1 ;   C109-  C115-  C118-  C121
   295    297    298    299      9   180.00   1.04600   2 ;   C109-  C115-  C118-  C121
   295    297    298    352      9     0.00   0.66944   3 ;   C109-  C115-  C118-  H156
   295    297    298    353      9     0.00   0.66944   3 ;   C109-  C115-  C118-  H161
   295    301    279    309      9     0.00   0.00000   0 ;   C109-  C127-    N6-   C35
   295    301    279    309      9   180.00   6.27600   1 ;   C109-  C127-    N6-   C35
   295    301    279    378      9   180.00  10.46000   2 ;   C109-  C127-    N6-   H52
   296    290    289    305      9     0.00   0.00000   0 ;   C112-   C89-   C84-  C135
   296    290    291    343      9   180.00  27.82360   2 ;   C112-   C89-   C94-  H111
   296    295    294    348      9     0.00   0.66944   3 ;   C112-  C109-  C106-  H136
   296    295    294    349      9     0.00   0.66944   3 ;   C112-  C109-  C106-  H141
   296    295    297    298      9     0.00   0.75312   3 ;   C112-  C109-  C115-  C118
   296    295    297    298      9   180.00   0.83680   1 ;   C112-  C109-  C115-  C118
   296    295    297    298      9   180.00   1.04600   2 ;   C112-  C109-  C115-  C118
   296    295    297    350      9     0.00   0.66944   3 ;   C112-  C109-  C115-  H146
   296    295    297    351      9     0.00   0.66944   3 ;   C112-  C109-  C115-  H151
   296    300    299    298      9     0.00   0.75312   3 ;   C112-  C124-  C121-  C118
   296    300    299    298      9   180.00   0.83680   1 ;   C112-  C124-  C121-  C118
   296    300    299    298      9   180.00   1.04600   2 ;   C112-  C124-  C121-  C118
   296    300    299    304      9     0.00   0.75312   3 ;   C112-  C124-  C121-  C133
   296    300    299    304      9   180.00   0.83680   1 ;   C112-  C124-  C121-  C133
   296    300    299    304      9   180.00   1.04600   2 ;   C112-  C124-  C121-  C133
   296    300    299    308      9     0.00   0.75312   3 ;   C112-  C124-  C121-  C141
   296    300    299    308      9   180.00   0.83680   1 ;   C112-  C124-  C121-  C141
   296    300    299    308      9   180.00   1.04600   2 ;   C112-  C124-  C121-  C141
   297    295    294    348      9     0.00   0.66944   3 ;   C115-  C109-  C106-  H136
   297    295    294    349      9     0.00   0.66944   3 ;   C115-  C109-  C106-  H141
   297    295    296    300      9     0.00   0.75312   3 ;   C115-  C109-  C112-  C124
   297    295    296    300      9   180.00   0.83680   1 ;   C115-  C109-  C112-  C124
   297    295    296    300      9   180.00   1.04600   2 ;   C115-  C109-  C112-  C124
   297    295    296    331      9     0.00   0.66944   3 ;   C115-  C109-  C112-   H51
   297    298    299    300      9     0.00   0.75312   3 ;   C115-  C118-  C121-  C124
   297    298    299    300      9   180.00   0.83680   1 ;   C115-  C118-  C121-  C124
   297    298    299    300      9   180.00   1.04600   2 ;   C115-  C118-  C121-  C124
   297    298    299    304      9     0.00   0.75312   3 ;   C115-  C118-  C121-  C133
   297    298    299    304      9   180.00   0.83680   1 ;   C115-  C118-  C121-  C133
   297    298    299    304      9   180.00   1.04600   2 ;   C115-  C118-  C121-  C133
   297    298    299    308      9     0.00   0.75312   3 ;   C115-  C118-  C121-  C141
   297    298    299    308      9   180.00   0.83680   1 ;   C115-  C118-  C121-  C141
   297    298    299    308      9   180.00   1.04600   2 ;   C115-  C118-  C121-  C141
   298    297    295    301      9     0.00   0.65084   3 ;   C118-  C115-  C109-  C127
   298    299    300    354      9     0.00   0.66944   3 ;   C118-  C121-  C124-  H166
   298    299    300    355      9     0.00   0.66944   3 ;   C118-  C121-  C124-  H171
   298    299    304    363      9     0.00   0.66944   3 ;   C118-  C121-  C133-  H200
   298    299    304    364      9     0.00   0.66944   3 ;   C118-  C121-  C133-  H202
   298    299    304    365      9     0.00   0.66944   3 ;   C118-  C121-  C133-  H204
   298    299    308    375      9     0.00   0.66944   3 ;   C118-  C121-  C141-  H224
   298    299    308    376      9     0.00   0.66944   3 ;   C118-  C121-  C141-  H226
   298    299    308    377      9     0.00   0.66944   3 ;   C118-  C121-  C141-  H228
   299    298    297    350      9     0.00   0.66944   3 ;   C121-  C118-  C115-  H146
   299    298    297    351      9     0.00   0.66944   3 ;   C121-  C118-  C115-  H151
   299    300    296    331      9     0.00   0.66944   3 ;   C121-  C124-  C112-   H51
   300    296    295    301      9     0.00   0.65084   3 ;   C124-  C112-  C109-  C127
   300    299    298    352      9     0.00   0.66944   3 ;   C124-  C121-  C118-  H156
   300    299    298    353      9     0.00   0.66944   3 ;   C124-  C121-  C118-  H161
   300    299    304    363      9     0.00   0.66944   3 ;   C124-  C121-  C133-  H200
   300    299    304    364      9     0.00   0.66944   3 ;   C124-  C121-  C133-  H202
   300    299    304    365      9     0.00   0.66944   3 ;   C124-  C121-  C133-  H204
   300    299    308    375      9     0.00   0.66944   3 ;   C124-  C121-  C141-  H224
   300    299    308    376      9     0.00   0.66944   3 ;   C124-  C121-  C141-  H226
   300    299    308    377      9     0.00   0.66944   3 ;   C124-  C121-  C141-  H228
   301    279    309    310      9     0.00   0.00000   0 ;   C127-    N6-   C35-   C40
   301    279    309    310      9     0.00   2.21752   1 ;   C127-    N6-   C35-   C40
   301    279    309    310      9   180.00   0.62760   3 ;   C127-    N6-   C35-   C40
   301    279    309    310      9   180.00   2.09200   4 ;   C127-    N6-   C35-   C40
   301    279    309    379      9     0.00   0.00000   0 ;   C127-    N6-   C35-   H57
   301    279    309    380      9     0.00   0.00000   0 ;   C127-    N6-   C35-   H62
   301    295    294    348      9     0.00   0.65084   3 ;   C127-  C109-  C106-  H136
   301    295    294    349      9     0.00   0.65084   3 ;   C127-  C109-  C106-  H141
   301    295    296    331      9     0.00   0.65084   3 ;   C127-  C109-  C112-   H51
   301    295    297    350      9     0.00   0.65084   3 ;   C127-  C109-  C115-  H146
   301    295    297    351      9     0.00   0.65084   3 ;   C127-  C109-  C115-  H151
   302    287    286    341      9     0.00   0.66944   3 ;   C129-   C74-   C69-  H101
   302    287    286    342      9     0.00   0.66944   3 ;   C129-   C74-   C69-  H106
   302    287    288    332      9     0.00   0.66944   3 ;   C129-   C74-   C79-   H56
   302    287    289    305      9     0.00   0.75312   3 ;   C129-   C74-   C84-  C135
   302    287    289    305      9   180.00   0.83680   1 ;   C129-   C74-   C84-  C135
   302    287    289    305      9   180.00   1.04600   2 ;   C129-   C74-   C84-  C135
   303    283    282    333      9     0.00   0.66944   3 ;   C131-   C54-   C49-   H61
   303    283    284    337      9     0.00   0.66944   3 ;   C131-   C54-   C59-   H81
   303    283    284    338      9     0.00   0.66944   3 ;   C131-   C54-   C59-   H86
   303    283    288    332      9     0.00   0.66944   3 ;   C131-   C54-   C79-   H56
   304    299    298    352      9     0.00   0.66944   3 ;   C133-  C121-  C118-  H156
   304    299    298    353      9     0.00   0.66944   3 ;   C133-  C121-  C118-  H161
   304    299    300    354      9     0.00   0.66944   3 ;   C133-  C121-  C124-  H166
   304    299    300    355      9     0.00   0.66944   3 ;   C133-  C121-  C124-  H171
   304    299    308    375      9     0.00   0.66944   3 ;   C133-  C121-  C141-  H224
   304    299    308    376      9     0.00   0.66944   3 ;   C133-  C121-  C141-  H226
   304    299    308    377      9     0.00   0.66944   3 ;   C133-  C121-  C141-  H228
   305    289    293    346      9     0.00   0.66944   3 ;   C135-   C84-  C103-  H126
   305    289    293    347      9     0.00   0.66944   3 ;   C135-   C84-  C103-  H131
   306    280    278    336      9     0.00   0.65084   3 ;   C137-   C44-   C39-   H76
   306    280    282    333      9     0.00   0.66944   3 ;   C137-   C44-   C49-   H61
   306    280    307    372      9     0.00   0.66944   3 ;   C137-   C44-  C139-  H218
   306    280    307    373      9     0.00   0.66944   3 ;   C137-   C44-  C139-  H220
   306    280    307    374      9     0.00   0.66944   3 ;   C137-   C44-  C139-  H222
   307    280    278    336      9     0.00   0.65084   3 ;   C139-   C44-   C39-   H76
   307    280    282    333      9     0.00   0.66944   3 ;   C139-   C44-   C49-   H61
   307    280    306    369      9     0.00   0.66944   3 ;   C139-   C44-  C137-  H212
   307    280    306    370      9     0.00   0.66944   3 ;   C139-   C44-  C137-  H214
   307    280    306    371      9     0.00   0.66944   3 ;   C139-   C44-  C137-  H216
   308    299    298    352      9     0.00   0.66944   3 ;   C141-  C121-  C118-  H156
   308    299    298    353      9     0.00   0.66944   3 ;   C141-  C121-  C118-  H161
   308    299    300    354      9     0.00   0.66944   3 ;   C141-  C121-  C124-  H166
   308    299    300    355      9     0.00   0.66944   3 ;   C141-  C121-  C124-  H171
   308    299    304    363      9     0.00   0.66944   3 ;   C141-  C121-  C133-  H200
   308    299    304    364      9     0.00   0.66944   3 ;   C141-  C121-  C133-  H202
   308    299    304    365      9     0.00   0.66944   3 ;   C141-  C121-  C133-  H204
   309    310    311    312      9     0.00   1.60247   3 ;    C35-   C40-   O13-   C45
   309    310    311    312      9   180.00   0.41840   2 ;    C35-   C40-   O13-   C45
   310    309    279    378      9     0.00   0.00000   0 ;    C40-   C35-    N6-   H52
   310    311    312    313      9     0.00   1.60247   3 ;    C40-   O13-   C45-   C50
   310    311    312    313      9   180.00   0.41840   2 ;    C40-   O13-   C45-   C50
   310    311    312    383      9     0.00   1.60387   3 ;    C40-   O13-   C45-   H77
   310    311    312    384      9     0.00   1.60387   3 ;    C40-   O13-   C45-   H82
   311    310    309    379      9     0.00   0.00000   0 ;    O13-   C40-   C35-   H57
   311    310    309    379      9     0.00   1.04600   1 ;    O13-   C40-   C35-   H57
   311    310    309    380      9     0.00   0.00000   0 ;    O13-   C40-   C35-   H62
   311    310    309    380      9     0.00   1.04600   1 ;    O13-   C40-   C35-   H62
   311    312    313    314      9     0.00   0.60250   3 ;    O13-   C45-   C50-   O20
   311    312    313    314      9     0.00   4.91620   2 ;    O13-   C45-   C50-   O20
   311    312    313    385      9     0.00   0.00000   0 ;    O13-   C45-   C50-   H87
   311    312    313    385      9     0.00   1.04600   1 ;    O13-   C45-   C50-   H87
   311    312    313    386      9     0.00   0.00000   0 ;    O13-   C45-   C50-   H92
   311    312    313    386      9     0.00   1.04600   1 ;    O13-   C45-   C50-   H92
   312    311    310    381      9     0.00   1.60387   3 ;    C45-   O13-   C40-   H67
   312    311    310    382      9     0.00   1.60387   3 ;    C45-   O13-   C40-   H72
   312    313    314    315      9     0.00   1.60247   3 ;    C45-   C50-   O20-   C55
   312    313    314    315      9   180.00   0.41840   2 ;    C45-   C50-   O20-   C55
   313    314    315    316      9     0.00   1.60247   3 ;    C50-   O20-   C55-   C60
   313    314    315    316      9   180.00   0.41840   2 ;    C50-   O20-   C55-   C60
   313    314    315    387      9     0.00   1.60387   3 ;    C50-   O20-   C55-   H97
   313    314    315    388      9     0.00   1.60387   3 ;    C50-   O20-   C55-  H102
   314    313    312    383      9     0.00   0.00000   0 ;    O20-   C50-   C45-   H77
   314    313    312    383      9     0.00   1.04600   1 ;    O20-   C50-   C45-   H77
   314    313    312    384      9     0.00   0.00000   0 ;    O20-   C50-   C45-   H82
   314    313    312    384      9     0.00   1.04600   1 ;    O20-   C50-   C45-   H82
   314    315    316    317      9     0.00   0.60250   3 ;    O20-   C55-   C60-   O18
   314    315    316    317      9     0.00   4.91620   2 ;    O20-   C55-   C60-   O18
   314    315    316    389      9     0.00   0.00000   0 ;    O20-   C55-   C60-  H107
   314    315    316    389      9     0.00   1.04600   1 ;    O20-   C55-   C60-  H107
   314    315    316    390      9     0.00   0.00000   0 ;    O20-   C55-   C60-  H112
   314    315    316    390      9     0.00   1.04600   1 ;    O20-   C55-   C60-  H112
   315    314    313    385      9     0.00   1.60387   3 ;    C55-   O20-   C50-   H87
   315    314    313    386      9     0.00   1.60387   3 ;    C55-   O20-   C50-   H92
   315    316    317    318      9     0.00   1.60247   3 ;    C55-   C60-   O18-   C65
   315    316    317    318      9   180.00   0.41840   2 ;    C55-   C60-   O18-   C65
   316    317    318    319      9     0.00   1.60247   3 ;    C60-   O18-   C65-   C70
   316    317    318    319      9   180.00   0.41840   2 ;    C60-   O18-   C65-   C70
   316    317    318    391      9     0.00   1.60387   3 ;    C60-   O18-   C65-  H117
   316    317    318    392      9     0.00   1.60387   3 ;    C60-   O18-   C65-  H122
   317    316    315    387      9     0.00   0.00000   0 ;    O18-   C60-   C55-   H97
   317    316    315    387      9     0.00   1.04600   1 ;    O18-   C60-   C55-   H97
   317    316    315    388      9     0.00   0.00000   0 ;    O18-   C60-   C55-  H102
   317    316    315    388      9     0.00   1.04600   1 ;    O18-   C60-   C55-  H102
   317    318    319    320      9     0.00   0.60250   3 ;    O18-   C65-   C70-   O22
   317    318    319    320      9     0.00   4.91620   2 ;    O18-   C65-   C70-   O22
   317    318    319    393      9     0.00   0.00000   0 ;    O18-   C65-   C70-  H127
   317    318    319    393      9     0.00   1.04600   1 ;    O18-   C65-   C70-  H127
   317    318    319    394      9     0.00   0.00000   0 ;    O18-   C65-   C70-  H132
   317    318    319    394      9     0.00   1.04600   1 ;    O18-   C65-   C70-  H132
   318    317    316    389      9     0.00   1.60387   3 ;    C65-   O18-   C60-  H107
   318    317    316    390      9     0.00   1.60387   3 ;    C65-   O18-   C60-  H112
   318    319    320    321      9     0.00   1.60247   3 ;    C65-   C70-   O22-   C75
   318    319    320    321      9   180.00   0.41840   2 ;    C65-   C70-   O22-   C75
   319    320    321    322      9     0.00   1.60247   3 ;    C70-   O22-   C75-   C80
   319    320    321    322      9   180.00   0.41840   2 ;    C70-   O22-   C75-   C80
   319    320    321    395      9     0.00   1.60387   3 ;    C70-   O22-   C75-  H137
   319    320    321    396      9     0.00   1.60387   3 ;    C70-   O22-   C75-  H142
   320    319    318    391      9     0.00   0.00000   0 ;    O22-   C70-   C65-  H117
   320    319    318    391      9     0.00   1.04600   1 ;    O22-   C70-   C65-  H117
   320    319    318    392      9     0.00   0.00000   0 ;    O22-   C70-   C65-  H122
   320    319    318    392      9     0.00   1.04600   1 ;    O22-   C70-   C65-  H122
   320    321    322    323      9     0.00   0.60250   3 ;    O22-   C75-   C80-   O24
   320    321    322    323      9     0.00   4.91620   2 ;    O22-   C75-   C80-   O24
   320    321    322    397      9     0.00   0.00000   0 ;    O22-   C75-   C80-  H147
   320    321    322    397      9     0.00   1.04600   1 ;    O22-   C75-   C80-  H147
   320    321    322    398      9     0.00   0.00000   0 ;    O22-   C75-   C80-  H152
   320    321    322    398      9     0.00   1.04600   1 ;    O22-   C75-   C80-  H152
   321    320    319    393      9     0.00   1.60387   3 ;    C75-   O22-   C70-  H127
   321    320    319    394      9     0.00   1.60387   3 ;    C75-   O22-   C70-  H132
   321    322    323    324      9     0.00   1.60247   3 ;    C75-   C80-   O24-   C85
   321    322    323    324      9   180.00   0.41840   2 ;    C75-   C80-   O24-   C85
   322    323    324    325      9     0.00   1.60247   3 ;    C80-   O24-   C85-   C90
   322    323    324    325      9   180.00   0.41840   2 ;    C80-   O24-   C85-   C90
   322    323    324    399      9     0.00   1.60387   3 ;    C80-   O24-   C85-  H157
   322    323    324    400      9     0.00   1.60387   3 ;    C80-   O24-   C85-  H162
   323    322    321    395      9     0.00   0.00000   0 ;    O24-   C80-   C75-  H137
   323    322    321    395      9     0.00   1.04600   1 ;    O24-   C80-   C75-  H137
   323    322    321    396      9     0.00   0.00000   0 ;    O24-   C80-   C75-  H142
   323    322    321    396      9     0.00   1.04600   1 ;    O24-   C80-   C75-  H142
   323    324    325    326      9     0.00   0.65084   3 ;    O24-   C85-   C90-    N8
   323    324    325    401      9     0.00   0.00000   0 ;    O24-   C85-   C90-  H167
   323    324    325    401      9     0.00   1.04600   1 ;    O24-   C85-   C90-  H167
   323    324    325    402      9     0.00   0.00000   0 ;    O24-   C85-   C90-  H172
   323    324    325    402      9     0.00   1.04600   1 ;    O24-   C85-   C90-  H172
   324    323    322    397      9     0.00   1.60387   3 ;    C85-   O24-   C80-  H147
   324    323    322    398      9     0.00   1.60387   3 ;    C85-   O24-   C80-  H152
   324    325    326    327      9     0.00   0.00000   0 ;    C85-   C90-    N8-   N10
   324    325    326    330      9     0.00   0.00000   0 ;    C85-   C90-    N8-  C100
   325    326    327    328      9   180.00  20.08320   2 ;    C90-    N8-   N10-   N12
   325    326    330    329      9   180.00   7.11280   2 ;    C90-    N8-  C100-   C95
   325    326    330    403      9   180.00   7.11280   2 ;    C90-    N8-  C100-  H177
   326    325    324    399      9     0.00   0.65084   3 ;     N8-   C90-   C85-  H157
   326    325    324    400      9     0.00   0.65084   3 ;     N8-   C90-   C85-  H162
   326    327    328    329      9   180.00  16.73600   2 ;     N8-   N10-   N12-   C95
   326    330    329    328      9   180.00  16.73600   2 ;     N8-  C100-   C95-   N12
   327    326    325    401      9     0.00   0.00000   0 ;    N10-    N8-   C90-  H167
   327    326    325    402      9     0.00   0.00000   0 ;    N10-    N8-   C90-  H172
   327    326    330    329      9   180.00   7.11280   2 ;    N10-    N8-  C100-   C95
   327    326    330    403      9   180.00   7.11280   2 ;    N10-    N8-  C100-  H177
   327    328    329    330      9   180.00  19.87400   2 ;    N10-   N12-   C95-  C100
   328    327    326    330      9   180.00  20.08320   2 ;    N12-   N10-    N8-  C100
   328    329     67    404      9     0.00   0.00000   0 ;    N12-   C95-  C125-  H182
   328    329     67    405      9     0.00   0.00000   0 ;    N12-   C95-  C125-  H187
   328    329    330    403      9   180.00  16.73600   2 ;    N12-   C95-  C100-  H177
   330    326    325    401      9     0.00   0.00000   0 ;   C100-    N8-   C90-  H167
   330    326    325    402      9     0.00   0.00000   0 ;   C100-    N8-   C90-  H172
   330    329     67    404      9     0.00   0.00000   0 ;   C100-   C95-  C125-  H182
   330    329     67    405      9     0.00   0.00000   0 ;   C100-   C95-  C125-  H187
   331    296    300    354      9     0.00   0.62760   3 ;    H51-  C112-  C124-  H166
   331    296    300    355      9     0.00   0.62760   3 ;    H51-  C112-  C124-  H171
   332    288    292    344      9     0.00   0.62760   3 ;    H56-   C79-   C99-  H116
   332    288    292    345      9     0.00   0.62760   3 ;    H56-   C79-   C99-  H121
   333    282    285    339      9     0.00   0.62760   3 ;    H61-   C49-   C64-   H91
   333    282    285    340      9     0.00   0.62760   3 ;    H61-   C49-   C64-   H96
   334    276    278    336      9     0.00   0.65084   3 ;    H66-   C34-   C39-   H76
   334    276    284    337      9     0.00   0.62760   3 ;    H66-   C34-   C59-   H81
   334    276    284    338      9     0.00   0.62760   3 ;    H66-   C34-   C59-   H86
   335    276    278    336      9     0.00   0.65084   3 ;    H71-   C34-   C39-   H76
   335    276    284    337      9     0.00   0.62760   3 ;    H71-   C34-   C59-   H81
   335    276    284    338      9     0.00   0.62760   3 ;    H71-   C34-   C59-   H86
   336    278    277    362      9     0.00   0.69733   3 ;    H76-   C39-   O12-  H198
   339    285    286    341      9     0.00   0.62760   3 ;    H91-   C64-   C69-  H101
   339    285    286    342      9     0.00   0.62760   3 ;    H91-   C64-   C69-  H106
   340    285    286    341      9     0.00   0.62760   3 ;    H96-   C64-   C69-  H101
   340    285    286    342      9     0.00   0.62760   3 ;    H96-   C64-   C69-  H106
   343    291    292    344      9     0.00   0.00000   0 ;   H111-   C94-   C99-  H116
   343    291    292    345      9     0.00   0.00000   0 ;   H111-   C94-   C99-  H121
   346    293    294    348      9     0.00   0.62760   3 ;   H126-  C103-  C106-  H136
   346    293    294    349      9     0.00   0.62760   3 ;   H126-  C103-  C106-  H141
   347    293    294    348      9     0.00   0.62760   3 ;   H131-  C103-  C106-  H136
   347    293    294    349      9     0.00   0.62760   3 ;   H131-  C103-  C106-  H141
   350    297    298    352      9     0.00   0.62760   3 ;   H146-  C115-  C118-  H156
   350    297    298    353      9     0.00   0.62760   3 ;   H146-  C115-  C118-  H161
   351    297    298    352      9     0.00   0.62760   3 ;   H151-  C115-  C118-  H156
   351    297    298    353      9     0.00   0.62760   3 ;   H151-  C115-  C118-  H161
   378    279    309    379      9     0.00   0.00000   0 ;    H52-    N6-   C35-   H57
   378    279    309    380      9     0.00   0.00000   0 ;    H52-    N6-   C35-   H62
   379    309    310    381      9     0.00   0.65084   3 ;    H57-   C35-   C40-   H67
   379    309    310    382      9     0.00   0.65084   3 ;    H57-   C35-   C40-   H72
   380    309    310    381      9     0.00   0.65084   3 ;    H62-   C35-   C40-   H67
   380    309    310    382      9     0.00   0.65084   3 ;    H62-   C35-   C40-   H72
   383    312    313    385      9     0.00   0.65084   3 ;    H77-   C45-   C50-   H87
   383    312    313    386      9     0.00   0.65084   3 ;    H77-   C45-   C50-   H92
   384    312    313    385      9     0.00   0.65084   3 ;    H82-   C45-   C50-   H87
   384    312    313    386      9     0.00   0.65084   3 ;    H82-   C45-   C50-   H92
   387    315    316    389      9     0.00   0.65084   3 ;    H97-   C55-   C60-  H107
   387    315    316    390      9     0.00   0.65084   3 ;    H97-   C55-   C60-  H112
   388    315    316    389      9     0.00   0.65084   3 ;   H102-   C55-   C60-  H107
   388    315    316    390      9     0.00   0.65084   3 ;   H102-   C55-   C60-  H112
   391    318    319    393      9     0.00   0.65084   3 ;   H117-   C65-   C70-  H127
   391    318    319    394      9     0.00   0.65084   3 ;   H117-   C65-   C70-  H132
   392    318    319    393      9     0.00   0.65084   3 ;   H122-   C65-   C70-  H127
   392    318    319    394      9     0.00   0.65084   3 ;   H122-   C65-   C70-  H132
   395    321    322    397      9     0.00   0.65084   3 ;   H137-   C75-   C80-  H147
   395    321    322    398      9     0.00   0.65084   3 ;   H137-   C75-   C80-  H152
   396    321    322    397      9     0.00   0.65084   3 ;   H142-   C75-   C80-  H147
   396    321    322    398      9     0.00   0.65084   3 ;   H142-   C75-   C80-  H152
   399    324    325    401      9     0.00   0.65084   3 ;   H157-   C85-   C90-  H167
   399    324    325    402      9     0.00   0.65084   3 ;   H157-   C85-   C90-  H172
   400    324    325    401      9     0.00   0.65084   3 ;   H162-   C85-   C90-  H167
   400    324    325    402      9     0.00   0.65084   3 ;   H162-   C85-   C90-  H172

[ dihedrals ] ; impropers
; treated as propers in GROMACS to use correct AMBER analytical function
;    i      j      k      l   func   phase     kd      pn
    15     17     16     80      4   180.00   4.60240   2 ;    C12-   C14-   C13-   H13
    16     14     15     21      4   180.00   4.60240   2 ;    C13-   C11-   C12-   C18
    20      4     26      6      4   180.00  43.93200   2 ;    C17-    N1-   C23-    O3
    26     34      4    115      4   180.00   4.60240   2 ;    C23-   C31-    N1-   H48
    50     54     51     52      4   180.00   4.60240   2 ;    C86-   C91-    N2-    N3
    55    140     54     51      4   180.00   4.60240   2 ;    C96-  H173-   C91-    N2
    56     54     55     53      4   180.00   4.60240   2 ;   C101-   C91-   C96-    N4
    58     61     60    144      4   180.00   4.60240   2 ;   C104-  C113-  C110-  H191
    58     63     59    143      4   180.00   4.60240   2 ;   C104-  C119-  C107-  H188
    59     60     58     57      4   180.00   4.60240   2 ;   C107-  C110-  C104-    O6
    59     62     63     65      4   180.00   4.60240   2 ;   C107-  C116-  C119-    O8
    60     62     61     64      4   180.00   4.60240   2 ;   C110-  C116-  C113-    O7
    61     63     62    145      4   180.00   4.60240   2 ;   C113-  C119-  C116-  H194
    66    199    200    198      4   180.00   4.60240   2 ;   C122-   C93-   C98-   N11
    67    330    329    328      4   180.00   4.60240   2 ;   C125-  C100-   C95-   N12
   160    162    161    213      4   180.00   4.60240   2 ;    C87-   C97-   C92-  H109
   161    159    160    166      4   180.00   4.60240   2 ;    C92-   C82-   C87-  C111
   165    149    171    151      4   180.00  43.93200   2 ;   C108-    N5-  C126-   O15
   171    179    149    248      4   180.00   4.60240   2 ;   C126-   C33-    N5-   H50
   195    199    196    197      4   180.00   4.60240   2 ;    C88-   C93-    N7-    N9
   200    273    199    196      4   180.00   4.60240   2 ;    C98-  H175-   C93-    N7
   290    292    291    343      4   180.00   4.60240   2 ;    C89-   C99-   C94-  H111
   291    289    290    296      4   180.00   4.60240   2 ;    C94-   C84-   C89-  C112
   295    279    301    281      4   180.00  43.93200   2 ;   C109-    N6-  C127-   O17
   301    309    279    378      4   180.00   4.60240   2 ;   C127-   C35-    N6-   H52
   325    330    326    327      4   180.00   4.60240   2 ;    C90-  C100-    N8-   N10
   329    403    330    326      4   180.00   4.60240   2 ;    C95-  H177-  C100-    N8

