UNK_GMX.gro created by acpype (v: 2023.10.27) on Tue Dec  2 09:33:57 2025
 373
    1  UNK    C    1  -0.590   7.095  -6.246
    1  UNK  C40    2  -0.664   7.229  -6.053
    1  UNK  C41    3  -0.393   6.295  -5.378
    1  UNK  C42    4  -0.557   7.006  -6.007
    1  UNK  C43    5  -0.414   7.182  -6.099
    1  UNK  C44    6  -0.437   6.618  -5.417
    1  UNK  C45    7  -0.624   6.386  -5.672
    1  UNK  C46    8  -0.557   7.128  -6.100
    1  UNK  C47    9  -0.623   6.835  -5.751
    1  UNK  C48   10  -0.511   6.902  -5.779
    1  UNK  C49   11  -0.261   7.059  -5.823
    1  UNK  C50   12  -0.568   6.409  -5.246
    1  UNK  C51   13  -0.632   6.689  -5.706
    1  UNK  C52   14  -0.376   7.233  -5.962
    1  UNK  C53   15  -0.376   6.390  -5.671
    1  UNK  C54   16  -0.267   6.937  -5.727
    1  UNK  C55   17  -0.638   6.253  -5.594
    1  UNK  C56   18  -0.529   6.369  -5.388
    1  UNK  C57   19  -0.639   6.273  -5.442
    1  UNK  C58   20  -0.516   7.036  -5.859
    1  UNK  C59   21  -0.422   6.745  -5.507
    1  UNK  C60   22  -0.502   6.473  -5.628
    1  UNK  C61   23  -0.383   6.711  -5.654
    1  UNK  C62   24  -0.522   6.500  -5.476
    1  UNK  C63   25  -0.394   7.137  -5.841
    1  UNK  C64   26  -0.496   6.612  -5.702
    1  UNK  C65   27  -0.238   6.653  -5.640
    1  UNK  C66   28  -0.418   7.221  -5.711
    1  UNK  C67   29  -0.377   6.832  -5.759
    1  UNK  C68   30  -0.352   6.771  -5.897
    1  UNK    O   31  -0.635   6.146  -5.376
    1  UNK  O13   32  -0.446   7.158  -5.609
    1  UNK   N1   33  -0.416   7.355  -5.700
    1  UNK  C69   34  -0.333   5.520  -7.072
    1  UNK  C70   35  -0.095   5.496  -7.090
    1  UNK  C71   36  -0.113   5.480  -5.894
    1  UNK  C72   37  -0.205   5.464  -6.863
    1  UNK  C73   38  -0.228   5.286  -7.039
    1  UNK  C74   39   0.028   5.430  -6.184
    1  UNK  C75   40  -0.267   5.681  -6.188
    1  UNK  C76   41  -0.215   5.439  -7.014
    1  UNK  C77   42  -0.112   5.557  -6.592
    1  UNK  C78   43  -0.107   5.429  -6.636
    1  UNK  C79   44  -0.053   5.144  -6.713
    1  UNK  C80   45   0.084   5.617  -5.953
    1  UNK  C81   46  -0.146   5.602  -6.451
    1  UNK  C82   47  -0.183   5.196  -6.921
    1  UNK  C83   48  -0.308   5.442  -6.130
    1  UNK  C84   49  -0.022   5.208  -6.577
    1  UNK  C85   50  -0.270   5.731  -6.040
    1  UNK  C86   51  -0.061   5.589  -5.991
    1  UNK  C87   52  -0.134   5.724  -5.970
    1  UNK  C88   53  -0.087   5.396  -6.787
    1  UNK  C89   54   0.023   5.385  -6.332
    1  UNK  C90   55  -0.210   5.537  -6.205
    1  UNK  C91   56  -0.121   5.356  -6.383
    1  UNK  C92   57  -0.066   5.547  -6.143
    1  UNK  C93   58  -0.062   5.244  -6.833
    1  UNK  C94   59  -0.200   5.491  -6.357
    1  UNK  C95   60  -0.174   5.234  -6.301
    1  UNK  C96   61   0.070   5.224  -6.917
    1  UNK  C97   62  -0.129   5.314  -6.538
    1  UNK  C98   63  -0.271   5.260  -6.565
    1  UNK  O14   64  -0.148   5.755  -5.831
    1  UNK  O15   65   0.176   5.200  -6.861
    1  UNK   N2   66   0.061   5.221  -7.051
    1  UNK  C99   67  -1.811   5.765  -6.053
    1  UNK C100   68  -1.906   5.536  -6.020
    1  UNK C101   69  -0.927   5.443  -5.381
    1  UNK C102   70  -1.713   5.622  -5.880
    1  UNK C103   71  -1.934   5.710  -5.838
    1  UNK C104   72  -1.240   5.397  -5.439
    1  UNK C105   73  -1.036   5.577  -5.724
    1  UNK C106   74  -1.843   5.657  -5.949
    1  UNK C107   75  -1.473   5.488  -5.780
    1  UNK C108   76  -1.570   5.540  -5.703
    1  UNK C109   77  -1.786   5.668  -5.544
    1  UNK C110   78  -0.991   5.228  -5.486
    1  UNK C111   79  -1.325   5.519  -5.768
    1  UNK C112   80  -1.955   5.613  -5.724
    1  UNK C113   81  -1.083   5.685  -5.504
    1  UNK C114   82  -1.646   5.640  -5.485
    1  UNK C115   83  -0.891   5.538  -5.690
    1  UNK C116   84  -0.983   5.378  -5.509
    1  UNK C117   85  -0.889   5.397  -5.631
    1  UNK C118   86  -1.715   5.535  -5.751
    1  UNK C119   87  -1.383   5.440  -5.481
    1  UNK C120   88  -1.132   5.573  -5.601
    1  UNK C121   89  -1.390   5.588  -5.529
    1  UNK C122   90  -1.128   5.428  -5.544
    1  UNK C123   91  -1.831   5.563  -5.647
    1  UNK C124   92  -1.281   5.601  -5.643
    1  UNK C125   93  -1.363   5.672  -5.402
    1  UNK C126   94  -1.870   5.436  -5.564
    1  UNK C127   95  -1.530   5.634  -5.590
    1  UNK C128   96  -1.514   5.774  -5.656
    1  UNK  O16   97  -0.757   5.362  -5.597
    1  UNK  O17   98  -1.781   5.364  -5.522
    1  UNK   N3   99  -1.997   5.398  -5.534
    1  UNK   C1  100   0.170   5.214  -7.148
    1  UNK   C2  101   0.143   5.306  -7.269
    1  UNK   O1  102   0.010   5.287  -7.319
    1  UNK   C3  103  -0.025   5.375  -7.426
    1  UNK   C4  104  -0.174   5.355  -7.460
    1  UNK   O2  105  -0.241   5.474  -7.505
    1  UNK   C5  106  -0.369   5.445  -7.561
    1  UNK   C6  107  -0.436   5.567  -7.628
    1  UNK   O3  108  -0.527   5.635  -7.540
    1  UNK   C7  109  -0.602   5.737  -7.607
    1  UNK   C8  110  -0.717   5.792  -7.520
    1  UNK   O4  111  -0.667   5.847  -7.398
    1  UNK   C9  112  -0.769   5.891  -7.306
    1  UNK  C10  113  -0.828   6.030  -7.341
    1  UNK   N4  114  -0.918   6.083  -7.239
    1  UNK   N5  115  -0.871   6.114  -7.116
    1  UNK   N6  116  -0.970   6.161  -7.046
    1  UNK  C11  117  -1.086   6.161  -7.125
    1  UNK  C12  118  -1.053   6.112  -7.248
    1  UNK  C13  119  -1.221   6.205  -7.073
    1  UNK   N7  120  -1.238   6.286  -6.952
    1  UNK  C14  121  -0.374   7.473  -5.779
    1  UNK  C15  122  -0.492   7.558  -5.833
    1  UNK   O5  123  -0.526   7.534  -5.970
    1  UNK  C16  124  -0.654   7.586  -6.007
    1  UNK  C17  125  -0.677   7.581  -6.160
    1  UNK   O6  126  -0.815   7.555  -6.191
    1  UNK  C18  127  -0.838   7.517  -6.327
    1  UNK  C19  128  -0.818   7.366  -6.347
    1  UNK   O7  129  -0.914   7.309  -6.437
    1  UNK  C20  130  -0.906   7.166  -6.440
    1  UNK  C21  131  -1.003   7.106  -6.543
    1  UNK   O8  132  -1.022   6.967  -6.518
    1  UNK  C22  133  -1.085   6.899  -6.627
    1  UNK  C23  134  -1.109   6.749  -6.596
    1  UNK   N8  135  -1.152   6.672  -6.712
    1  UNK   N9  136  -1.245   6.724  -6.797
    1  UNK  N10  137  -1.261   6.639  -6.893
    1  UNK  C24  138  -1.181   6.527  -6.872
    1  UNK  C25  139  -1.115   6.545  -6.753
    1  UNK  C26  140  -1.175   6.417  -6.974
    1  UNK  C27  141  -2.128   5.464  -5.530
    1  UNK  C28  142  -2.218   5.440  -5.654
    1  UNK   O9  143  -2.243   5.556  -5.734
    1  UNK  C29  144  -2.302   5.522  -5.860
    1  UNK  C30  145  -2.342   5.644  -5.946
    1  UNK  O10  146  -2.235   5.687  -6.031
    1  UNK  C31  147  -2.272   5.775  -6.137
    1  UNK  C32  148  -2.143   5.822  -6.208
    1  UNK  O11  149  -2.154   5.854  -6.347
    1  UNK  C33  150  -2.025   5.896  -6.395
    1  UNK  C34  151  -2.013   5.932  -6.544
    1  UNK  O12  152  -1.873   5.927  -6.570
    1  UNK  C35  153  -1.829   5.989  -6.691
    1  UNK  C36  154  -1.676   5.965  -6.696
    1  UNK  N11  155  -1.602   6.047  -6.791
    1  UNK  N12  156  -1.596   6.012  -6.921
    1  UNK  N13  157  -1.515   6.095  -6.980
    1  UNK  C37  158  -1.471   6.190  -6.889
    1  UNK  C38  159  -1.523   6.159  -6.766
    1  UNK  C39  160  -1.381   6.305  -6.927
    1  UNK HHXT  161  -0.512   7.033  -6.289
    1  UNK  H74  162  -0.686   7.046  -6.256
    1  UNK  H75  163  -0.591   7.184  -6.307
    1  UNK  H76  164  -0.655   7.256  -5.948
    1  UNK  H77  165  -0.657   7.320  -6.110
    1  UNK  H78  166  -0.764   7.188  -6.067
    1  UNK  H79  167  -0.373   6.231  -5.463
    1  UNK  H80  168  -0.309   6.363  -5.366
    1  UNK  H81  169  -0.395   6.230  -5.292
    1  UNK  H82  170  -0.488   6.934  -6.050
    1  UNK  H83  171  -0.655   6.958  -6.009
    1  UNK  H84  172  -0.404   7.264  -6.171
    1  UNK  H85  173  -0.343   7.106  -6.132
    1  UNK  H86  174  -0.483   6.652  -5.325
    1  UNK  H87  175  -0.339   6.583  -5.386
    1  UNK  H88  176  -0.717   6.441  -5.657
    1  UNK  H89  177  -0.620   6.365  -5.779
    1  UNK  HXT  178  -0.715   6.886  -5.771
    1  UNK  H90  179  -0.223   7.029  -5.920
    1  UNK  H91  180  -0.185   7.127  -5.785
    1  UNK  H92  181  -0.654   6.476  -5.244
    1  UNK  H93  182  -0.589   6.324  -5.181
    1  UNK  H94  183  -0.487   6.466  -5.202
    1  UNK  H95  184  -0.700   6.639  -5.774
    1  UNK  H96  185  -0.682   6.690  -5.609
    1  UNK  H97  186  -0.442   7.317  -5.951
    1  UNK  H98  187  -0.274   7.271  -5.966
    1  UNK  H99  188  -0.294   6.395  -5.600
    1  UNK H100  189  -0.393   6.284  -5.684
    1  UNK H101  190  -0.336   6.422  -5.767
    1  UNK H102  191  -0.278   6.971  -5.625
    1  UNK H103  192  -0.168   6.893  -5.733
    1  UNK H104  193  -0.559   6.182  -5.620
    1  UNK H105  194  -0.730   6.203  -5.624
    1  UNK H196  195  -0.736   6.317  -5.418
    1  UNK H197  196  -0.603   7.086  -5.817
    1  UNK H106  197  -0.348   6.812  -5.463
    1  UNK H107  198  -0.514   6.803  -5.503
    1  UNK H198  199  -0.623   6.539  -5.468
    1  UNK H199  200  -0.478   6.583  -5.805
    1  UNK H108  201  -0.202   6.602  -5.728
    1  UNK H109  202  -0.165   6.727  -5.611
    1  UNK H110  203  -0.226   6.581  -5.560
    1  UNK H111  204  -0.287   6.685  -5.894
    1  UNK H112  205  -0.442   6.737  -5.947
    1  UNK H113  206  -0.311   6.845  -5.962
    1  UNK   HO  207  -0.710   6.097  -5.408
    1  UNK H114  208  -0.352   5.496  -7.176
    1  UNK H115  209  -0.423   5.507  -7.013
    1  UNK H116  210  -0.314   5.627  -7.066
    1  UNK H117  211  -0.000   5.470  -7.045
    1  UNK H118  212  -0.095   5.463  -7.192
    1  UNK H119  213  -0.099   5.604  -7.096
    1  UNK H120  214  -0.221   5.484  -5.880
    1  UNK H121  215  -0.088   5.379  -5.927
    1  UNK H122  216  -0.069   5.491  -5.795
    1  UNK H123  217  -0.298   5.431  -6.817
    1  UNK H124  218  -0.205   5.571  -6.844
    1  UNK H125  219  -0.179   5.257  -7.131
    1  UNK H126  220  -0.331   5.258  -7.055
    1  UNK H127  221   0.129   5.464  -6.168
    1  UNK H128  222   0.015   5.345  -6.117
    1  UNK H129  223  -0.204   5.752  -6.242
    1  UNK H130  224  -0.364   5.691  -6.233
    1  UNK H131  225  -0.144   5.084  -6.705
    1  UNK H132  226   0.022   5.066  -6.730
    1  UNK H133  227   0.134   5.683  -6.024
    1  UNK H134  228   0.096   5.659  -5.853
    1  UNK H135  229   0.135   5.523  -5.957
    1  UNK H136  230  -0.219   5.682  -6.461
    1  UNK H137  231  -0.056   5.649  -6.411
    1  UNK H138  232  -0.162   5.095  -6.960
    1  UNK H139  233  -0.270   5.181  -6.858
    1  UNK H140  234  -0.260   5.355  -6.088
    1  UNK H141  235  -0.361   5.487  -6.046
    1  UNK H142  236  -0.387   5.407  -6.196
    1  UNK H143  237   0.077   5.254  -6.581
    1  UNK H144  238  -0.014   5.128  -6.504
    1  UNK H145  239  -0.347   5.682  -5.981
    1  UNK H146  240  -0.295   5.836  -6.042
    1  UNK H200  241  -0.073   5.803  -6.014
    1  UNK H201  242   0.003   5.452  -6.814
    1  UNK H147  243   0.084   5.296  -6.344
    1  UNK H148  244   0.071   5.461  -6.394
    1  UNK H202  245  -0.020   5.631  -6.195
    1  UNK H203  246  -0.303   5.477  -6.390
    1  UNK H149  247  -0.282   5.236  -6.295
    1  UNK H150  248  -0.147   5.138  -6.343
    1  UNK H151  249  -0.138   5.228  -6.199
    1  UNK H152  250  -0.277   5.154  -6.540
    1  UNK H153  251  -0.349   5.312  -6.511
    1  UNK H154  252  -0.298   5.268  -6.669
    1  UNK H209  253  -0.176   5.846  -5.825
    1  UNK H155  254  -1.759   5.849  -6.009
    1  UNK H156  255  -1.747   5.726  -6.132
    1  UNK H157  256  -1.899   5.806  -6.101
    1  UNK H158  257  -1.916   5.453  -5.951
    1  UNK H159  258  -2.005   5.559  -6.059
    1  UNK H160  259  -1.844   5.503  -6.103
    1  UNK H161  260  -0.878   5.538  -5.400
    1  UNK H162  261  -1.004   5.460  -5.306
    1  UNK H163  262  -0.856   5.377  -5.335
    1  UNK H164  263  -1.665   5.716  -5.856
    1  UNK H165  264  -1.647   5.577  -5.955
    1  UNK H166  265  -2.034   5.725  -5.879
    1  UNK H167  266  -1.895   5.803  -5.799
    1  UNK H168  267  -1.247   5.290  -5.425
    1  UNK H169  268  -1.215   5.437  -5.341
    1  UNK H170  269  -1.070   5.509  -5.802
    1  UNK H171  270  -1.037   5.675  -5.771
    1  UNK H204  271  -1.499   5.429  -5.866
    1  UNK H172  272  -1.790   5.766  -5.589
    1  UNK H173  273  -1.857   5.673  -5.462
    1  UNK H174  274  -1.042   5.176  -5.567
    1  UNK H175  275  -0.895   5.181  -5.469
    1  UNK H176  276  -1.054   5.214  -5.401
    1  UNK H177  277  -1.296   5.573  -5.857
    1  UNK H178  278  -1.276   5.422  -5.776
    1  UNK H179  279  -2.004   5.526  -5.766
    1  UNK H180  280  -2.023   5.663  -5.656
    1  UNK H181  281  -1.089   5.657  -5.400
    1  UNK H182  282  -0.979   5.714  -5.517
    1  UNK H183  283  -1.137   5.778  -5.517
    1  UNK H184  284  -1.647   5.548  -5.427
    1  UNK H185  285  -1.630   5.718  -5.412
    1  UNK H186  286  -0.842   5.608  -5.623
    1  UNK H187  287  -0.830   5.542  -5.780
    1  UNK H205  288  -0.919   5.330  -5.711
    1  UNK H206  289  -1.732   5.432  -5.781
    1  UNK H188  290  -1.451   5.425  -5.397
    1  UNK H189  291  -1.418   5.371  -5.557
    1  UNK H207  292  -1.154   5.362  -5.626
    1  UNK H208  293  -1.278   5.705  -5.675
    1  UNK H190  294  -1.339   5.774  -5.428
    1  UNK H191  295  -1.445   5.673  -5.331
    1  UNK H192  296  -1.282   5.636  -5.341
    1  UNK H193  297  -1.451   5.841  -5.599
    1  UNK H194  298  -1.467   5.768  -5.754
    1  UNK H195  299  -1.608   5.824  -5.675
    1  UNK H210  300  -0.697   5.394  -5.664
    1  UNK   H1  301   0.175   5.110  -7.180
    1  UNK   H2  302   0.266   5.238  -7.103
    1  UNK   H3  303   0.157   5.410  -7.239
    1  UNK   H4  304   0.216   5.286  -7.348
    1  UNK   H5  305   0.037   5.357  -7.513
    1  UNK   H6  306  -0.007   5.479  -7.396
    1  UNK   H7  307  -0.227   5.320  -7.371
    1  UNK   H8  308  -0.182   5.275  -7.534
    1  UNK   H9  309  -0.434   5.403  -7.484
    1  UNK  H10  310  -0.357   5.368  -7.637
    1  UNK  H11  311  -0.493   5.530  -7.713
    1  UNK  H12  312  -0.361   5.635  -7.668
    1  UNK  H13  313  -0.646   5.696  -7.699
    1  UNK  H14  314  -0.536   5.818  -7.638
    1  UNK  H15  315  -0.789   5.713  -7.500
    1  UNK  H16  316  -0.771   5.870  -7.575
    1  UNK  H17  317  -0.723   5.897  -7.208
    1  UNK  H18  318  -0.849   5.817  -7.297
    1  UNK  H19  319  -0.882   6.027  -7.435
    1  UNK  H20  320  -0.747   6.103  -7.353
    1  UNK  H21  321  -1.113   6.096  -7.337
    1  UNK  H22  322  -1.273   6.256  -7.155
    1  UNK  H23  323  -1.278   6.114  -7.059
    1  UNK  H24  324  -0.460   7.383  -5.613
    1  UNK  H25  325  -0.297   7.453  -5.853
    1  UNK  H26  326  -0.322   7.535  -5.706
    1  UNK  H27  327  -0.465   7.663  -5.826
    1  UNK  H28  328  -0.580   7.546  -5.771
    1  UNK  H29  329  -0.666   7.688  -5.972
    1  UNK  H30  330  -0.729   7.526  -5.957
    1  UNK  H31  331  -0.614   7.504  -6.205
    1  UNK  H32  332  -0.646   7.675  -6.206
    1  UNK  H33  333  -0.778   7.575  -6.397
    1  UNK  H34  334  -0.942   7.542  -6.348
    1  UNK  H35  335  -0.831   7.316  -6.251
    1  UNK  H36  336  -0.717   7.346  -6.382
    1  UNK  H37  337  -0.930   7.127  -6.341
    1  UNK  H38  338  -0.804   7.134  -6.464
    1  UNK  H39  339  -0.965   7.123  -6.644
    1  UNK  H40  340  -1.100   7.156  -6.537
    1  UNK  H41  341  -1.180   6.948  -6.650
    1  UNK  H42  342  -1.022   6.908  -6.716
    1  UNK  H43  343  -1.016   6.705  -6.558
    1  UNK  H44  344  -1.183   6.739  -6.517
    1  UNK  H45  345  -1.044   6.482  -6.700
    1  UNK  H46  346  -1.215   6.457  -7.068
    1  UNK  H47  347  -1.070   6.399  -6.995
    1  UNK  H48  348  -1.996   5.306  -5.492
    1  UNK  H49  349  -2.122   5.569  -5.500
    1  UNK  H50  350  -2.178   5.418  -5.445
    1  UNK  H51  351  -2.315   5.402  -5.620
    1  UNK  H52  352  -2.175   5.360  -5.714
    1  UNK  H53  353  -2.393   5.464  -5.839
    1  UNK  H54  354  -2.236   5.456  -5.916
    1  UNK  H55  355  -2.378   5.726  -5.884
    1  UNK  H56  356  -2.426   5.614  -6.010
    1  UNK  H57  357  -2.328   5.860  -6.098
    1  UNK  H58  358  -2.337   5.723  -6.207
    1  UNK  H59  359  -2.072   5.741  -6.199
    1  UNK  H60  360  -2.101   5.907  -6.155
    1  UNK  H61  361  -1.955   5.815  -6.376
    1  UNK  H62  362  -1.989   5.981  -6.337
    1  UNK  H63  363  -2.054   6.032  -6.564
    1  UNK  H64  364  -2.065   5.861  -6.608
    1  UNK  H65  365  -1.852   6.095  -6.690
    1  UNK  H66  366  -1.878   5.946  -6.779
    1  UNK  H67  367  -1.656   5.860  -6.717
    1  UNK  H68  368  -1.634   5.985  -6.597
    1  UNK  H69  369  -1.513   6.205  -6.669
    1  UNK  H70  370  -1.391   6.379  -6.847
    1  UNK  H71  371  -1.425   6.355  -7.014
    1  UNK  H72  372  -0.094   5.637  -6.663
    1  UNK  H73  373  -0.030   5.240  -7.090
   53.83000    52.44400    50.63200
