; UNK_GMX.top created by acpype (v: 2023.10.27) on Tue Dec  2 09:33:57 2025

[ defaults ]
; nbfunc        comb-rule       gen-pairs       fudgeLJ fudgeQQ
1               2               yes             0.5     0.8333333333

[ atomtypes ]
;name   bond_type     mass     charge   ptype   sigma         epsilon       Amb
 c3       c3          0.00000  0.00000   A     3.39967e-01   4.57730e-01 ; 1.91  0.1094
 c2       c2          0.00000  0.00000   A     3.39967e-01   3.59824e-01 ; 1.91  0.0860
 c        c           0.00000  0.00000   A     3.39967e-01   3.59824e-01 ; 1.91  0.0860
 oh       oh          0.00000  0.00000   A     3.06647e-01   8.80314e-01 ; 1.72  0.2104
 o        o           0.00000  0.00000   A     2.95992e-01   8.78640e-01 ; 1.66  0.2100
 n        n           0.00000  0.00000   A     3.25000e-01   7.11280e-01 ; 1.82  0.1700
 os       os          0.00000  0.00000   A     3.00001e-01   7.11280e-01 ; 1.68  0.1700
 na       na          0.00000  0.00000   A     3.25000e-01   7.11280e-01 ; 1.82  0.1700
 nc       nc          0.00000  0.00000   A     3.25000e-01   7.11280e-01 ; 1.82  0.1700
 nd       nd          0.00000  0.00000   A     3.25000e-01   7.11280e-01 ; 1.82  0.1700
 cd       cd          0.00000  0.00000   A     3.39967e-01   3.59824e-01 ; 1.91  0.0860
 cc       cc          0.00000  0.00000   A     3.39967e-01   3.59824e-01 ; 1.91  0.0860
 n3       n3          0.00000  0.00000   A     3.25000e-01   7.11280e-01 ; 1.82  0.1700
 hc       hc          0.00000  0.00000   A     2.64953e-01   6.56888e-02 ; 1.49  0.0157
 ha       ha          0.00000  0.00000   A     2.59964e-01   6.27600e-02 ; 1.46  0.0150
 h1       h1          0.00000  0.00000   A     2.47135e-01   6.56888e-02 ; 1.39  0.0157
 ho       ho          0.00000  0.00000   A     0.00000e+00   0.00000e+00 ; 0.00  0.0000
 h4       h4          0.00000  0.00000   A     2.51055e-01   6.27600e-02 ; 1.41  0.0150
 hn       hn          0.00000  0.00000   A     1.06908e-01   6.56888e-02 ; 0.60  0.0157

[ moleculetype ]
;name            nrexcl
 UNK              3

[ atoms ]
;   nr  type  resi  res  atom  cgnr     charge      mass       ; qtot   bond_type
     1   c3     1   UNK     C    1    -0.059887     12.01000 ; qtot -0.060
     2   c3     1   UNK   C40    2    -0.059887     12.01000 ; qtot -0.120
     3   c3     1   UNK   C41    3    -0.057146     12.01000 ; qtot -0.177
     4   c3     1   UNK   C42    4    -0.040466     12.01000 ; qtot -0.217
     5   c3     1   UNK   C43    5    -0.047062     12.01000 ; qtot -0.264
     6   c3     1   UNK   C44    6    -0.048748     12.01000 ; qtot -0.313
     7   c3     1   UNK   C45    7    -0.044798     12.01000 ; qtot -0.358
     8   c3     1   UNK   C46    8    -0.034782     12.01000 ; qtot -0.393
     9   c2     1   UNK   C47    9    -0.084126     12.01000 ; qtot -0.477
    10   c2     1   UNK   C48   10    -0.063524     12.01000 ; qtot -0.540
    11   c3     1   UNK   C49   11    -0.037522     12.01000 ; qtot -0.578
    12   c3     1   UNK   C50   12    -0.057146     12.01000 ; qtot -0.635
    13   c3     1   UNK   C51   13    -0.030837     12.01000 ; qtot -0.666
    14   c3     1   UNK   C52   14    -0.037860     12.01000 ; qtot -0.704
    15   c3     1   UNK   C53   15    -0.059057     12.01000 ; qtot -0.763
    16   c3     1   UNK   C54   16    -0.042519     12.01000 ; qtot -0.805
    17   c3     1   UNK   C55   17    -0.025929     12.01000 ; qtot -0.831
    18   c3     1   UNK   C56   18    -0.006011     12.01000 ; qtot -0.837
    19   c3     1   UNK   C57   19     0.059375     12.01000 ; qtot -0.778
    20   c3     1   UNK   C58   20    -0.004977     12.01000 ; qtot -0.783
    21   c3     1   UNK   C59   21    -0.046426     12.01000 ; qtot -0.829
    22   c3     1   UNK   C60   22    -0.025376     12.01000 ; qtot -0.855
    23   c3     1   UNK   C61   23    -0.019794     12.01000 ; qtot -0.875
    24   c3     1   UNK   C62   24    -0.028080     12.01000 ; qtot -0.903
    25   c3     1   UNK   C63   25     0.053653     12.01000 ; qtot -0.849
    26   c3     1   UNK   C64   26    -0.026010     12.01000 ; qtot -0.875
    27   c3     1   UNK   C65   27    -0.058513     12.01000 ; qtot -0.933
    28    c     1   UNK   C66   28     0.218543     12.01000 ; qtot -0.715
    29   c3     1   UNK   C67   29    -0.005618     12.01000 ; qtot -0.721
    30   c3     1   UNK   C68   30    -0.055324     12.01000 ; qtot -0.776
    31   oh     1   UNK     O   31    -0.392562     16.00000 ; qtot -1.168
    32    o     1   UNK   O13   32    -0.277065     16.00000 ; qtot -1.445
    33    n     1   UNK    N1   33    -0.312618     14.01000 ; qtot -1.758
    34   c3     1   UNK   C69   34    -0.059887     12.01000 ; qtot -1.818
    35   c3     1   UNK   C70   35    -0.059887     12.01000 ; qtot -1.878
    36   c3     1   UNK   C71   36    -0.057146     12.01000 ; qtot -1.935
    37   c3     1   UNK   C72   37    -0.040466     12.01000 ; qtot -1.975
    38   c3     1   UNK   C73   38    -0.047062     12.01000 ; qtot -2.023
    39   c3     1   UNK   C74   39    -0.048748     12.01000 ; qtot -2.071
    40   c3     1   UNK   C75   40    -0.044798     12.01000 ; qtot -2.116
    41   c3     1   UNK   C76   41    -0.034782     12.01000 ; qtot -2.151
    42   c2     1   UNK   C77   42    -0.084126     12.01000 ; qtot -2.235
    43   c2     1   UNK   C78   43    -0.063524     12.01000 ; qtot -2.299
    44   c3     1   UNK   C79   44    -0.037522     12.01000 ; qtot -2.336
    45   c3     1   UNK   C80   45    -0.057146     12.01000 ; qtot -2.393
    46   c3     1   UNK   C81   46    -0.030837     12.01000 ; qtot -2.424
    47   c3     1   UNK   C82   47    -0.037860     12.01000 ; qtot -2.462
    48   c3     1   UNK   C83   48    -0.059057     12.01000 ; qtot -2.521
    49   c3     1   UNK   C84   49    -0.042519     12.01000 ; qtot -2.563
    50   c3     1   UNK   C85   50    -0.025929     12.01000 ; qtot -2.589
    51   c3     1   UNK   C86   51    -0.006011     12.01000 ; qtot -2.595
    52   c3     1   UNK   C87   52     0.059375     12.01000 ; qtot -2.536
    53   c3     1   UNK   C88   53    -0.004977     12.01000 ; qtot -2.541
    54   c3     1   UNK   C89   54    -0.046426     12.01000 ; qtot -2.587
    55   c3     1   UNK   C90   55    -0.025376     12.01000 ; qtot -2.613
    56   c3     1   UNK   C91   56    -0.019794     12.01000 ; qtot -2.633
    57   c3     1   UNK   C92   57    -0.028080     12.01000 ; qtot -2.661
    58   c3     1   UNK   C93   58     0.053653     12.01000 ; qtot -2.607
    59   c3     1   UNK   C94   59    -0.026010     12.01000 ; qtot -2.633
    60   c3     1   UNK   C95   60    -0.058513     12.01000 ; qtot -2.692
    61    c     1   UNK   C96   61     0.218543     12.01000 ; qtot -2.473
    62   c3     1   UNK   C97   62    -0.005618     12.01000 ; qtot -2.479
    63   c3     1   UNK   C98   63    -0.055324     12.01000 ; qtot -2.534
    64   oh     1   UNK   O14   64    -0.392562     16.00000 ; qtot -2.927
    65    o     1   UNK   O15   65    -0.277065     16.00000 ; qtot -3.204
    66    n     1   UNK    N2   66    -0.312618     14.01000 ; qtot -3.516
    67   c3     1   UNK   C99   67    -0.059887     12.01000 ; qtot -3.576
    68   c3     1   UNK  C100   68    -0.059887     12.01000 ; qtot -3.636
    69   c3     1   UNK  C101   69    -0.057146     12.01000 ; qtot -3.693
    70   c3     1   UNK  C102   70    -0.040466     12.01000 ; qtot -3.734
    71   c3     1   UNK  C103   71    -0.047062     12.01000 ; qtot -3.781
    72   c3     1   UNK  C104   72    -0.048748     12.01000 ; qtot -3.829
    73   c3     1   UNK  C105   73    -0.044798     12.01000 ; qtot -3.874
    74   c3     1   UNK  C106   74    -0.034782     12.01000 ; qtot -3.909
    75   c2     1   UNK  C107   75    -0.084126     12.01000 ; qtot -3.993
    76   c2     1   UNK  C108   76    -0.063524     12.01000 ; qtot -4.057
    77   c3     1   UNK  C109   77    -0.037522     12.01000 ; qtot -4.094
    78   c3     1   UNK  C110   78    -0.057146     12.01000 ; qtot -4.151
    79   c3     1   UNK  C111   79    -0.030837     12.01000 ; qtot -4.182
    80   c3     1   UNK  C112   80    -0.037860     12.01000 ; qtot -4.220
    81   c3     1   UNK  C113   81    -0.059057     12.01000 ; qtot -4.279
    82   c3     1   UNK  C114   82    -0.042519     12.01000 ; qtot -4.322
    83   c3     1   UNK  C115   83    -0.025929     12.01000 ; qtot -4.347
    84   c3     1   UNK  C116   84    -0.006011     12.01000 ; qtot -4.354
    85   c3     1   UNK  C117   85     0.059375     12.01000 ; qtot -4.294
    86   c3     1   UNK  C118   86    -0.004977     12.01000 ; qtot -4.299
    87   c3     1   UNK  C119   87    -0.046426     12.01000 ; qtot -4.346
    88   c3     1   UNK  C120   88    -0.025376     12.01000 ; qtot -4.371
    89   c3     1   UNK  C121   89    -0.019794     12.01000 ; qtot -4.391
    90   c3     1   UNK  C122   90    -0.028080     12.01000 ; qtot -4.419
    91   c3     1   UNK  C123   91     0.053653     12.01000 ; qtot -4.365
    92   c3     1   UNK  C124   92    -0.026010     12.01000 ; qtot -4.391
    93   c3     1   UNK  C125   93    -0.058513     12.01000 ; qtot -4.450
    94    c     1   UNK  C126   94     0.218543     12.01000 ; qtot -4.231
    95   c3     1   UNK  C127   95    -0.005618     12.01000 ; qtot -4.237
    96   c3     1   UNK  C128   96    -0.055324     12.01000 ; qtot -4.292
    97   oh     1   UNK   O16   97    -0.392562     16.00000 ; qtot -4.685
    98    o     1   UNK   O17   98    -0.277065     16.00000 ; qtot -4.962
    99    n     1   UNK    N3   99    -0.312618     14.01000 ; qtot -5.274
   100   c3     1   UNK    C1  100     0.034496     12.01000 ; qtot -5.240
   101   c3     1   UNK    C2  101     0.062212     12.01000 ; qtot -5.178
   102   os     1   UNK    O1  102    -0.377436     16.00000 ; qtot -5.555
   103   c3     1   UNK    C3  103     0.070077     12.01000 ; qtot -5.485
   104   c3     1   UNK    C4  104     0.070114     12.01000 ; qtot -5.415
   105   os     1   UNK    O2  105    -0.376668     16.00000 ; qtot -5.792
   106   c3     1   UNK    C5  106     0.070114     12.01000 ; qtot -5.721
   107   c3     1   UNK    C6  107     0.070114     12.01000 ; qtot -5.651
   108   os     1   UNK    O3  108    -0.376668     16.00000 ; qtot -6.028
   109   c3     1   UNK    C7  109     0.070114     12.01000 ; qtot -5.958
   110   c3     1   UNK    C8  110     0.070079     12.01000 ; qtot -5.888
   111   os     1   UNK    O4  111    -0.377345     16.00000 ; qtot -6.265
   112   c3     1   UNK    C9  112     0.064459     12.01000 ; qtot -6.201
   113   c3     1   UNK   C10  113     0.059059     12.01000 ; qtot -6.142
   114   na     1   UNK    N4  114    -0.210020     14.01000 ; qtot -6.352
   115   nc     1   UNK    N5  115    -0.076040     14.01000 ; qtot -6.428
   116   nd     1   UNK    N6  116    -0.136209     14.01000 ; qtot -6.564
   117   cd     1   UNK   C11  117     0.094309     12.01000 ; qtot -6.470
   118   cc     1   UNK   C12  118     0.041051     12.01000 ; qtot -6.428
   119   c3     1   UNK   C13  119     0.044816     12.01000 ; qtot -6.384
   120   n3     1   UNK    N7  120    -0.285503     14.01000 ; qtot -6.669
   121   c3     1   UNK   C14  121     0.034496     12.01000 ; qtot -6.635
   122   c3     1   UNK   C15  122     0.062212     12.01000 ; qtot -6.572
   123   os     1   UNK    O5  123    -0.377436     16.00000 ; qtot -6.950
   124   c3     1   UNK   C16  124     0.070077     12.01000 ; qtot -6.880
   125   c3     1   UNK   C17  125     0.070114     12.01000 ; qtot -6.810
   126   os     1   UNK    O6  126    -0.376668     16.00000 ; qtot -7.186
   127   c3     1   UNK   C18  127     0.070114     12.01000 ; qtot -7.116
   128   c3     1   UNK   C19  128     0.070114     12.01000 ; qtot -7.046
   129   os     1   UNK    O7  129    -0.376668     16.00000 ; qtot -7.423
   130   c3     1   UNK   C20  130     0.070114     12.01000 ; qtot -7.353
   131   c3     1   UNK   C21  131     0.070079     12.01000 ; qtot -7.283
   132   os     1   UNK    O8  132    -0.377345     16.00000 ; qtot -7.660
   133   c3     1   UNK   C22  133     0.064459     12.01000 ; qtot -7.596
   134   c3     1   UNK   C23  134     0.059059     12.01000 ; qtot -7.536
   135   na     1   UNK    N8  135    -0.210020     14.01000 ; qtot -7.746
   136   nc     1   UNK    N9  136    -0.076040     14.01000 ; qtot -7.823
   137   nd     1   UNK   N10  137    -0.136209     14.01000 ; qtot -7.959
   138   cd     1   UNK   C24  138     0.094309     12.01000 ; qtot -7.864
   139   cc     1   UNK   C25  139     0.041051     12.01000 ; qtot -7.823
   140   c3     1   UNK   C26  140     0.044816     12.01000 ; qtot -7.779
   141   c3     1   UNK   C27  141     0.034496     12.01000 ; qtot -7.744
   142   c3     1   UNK   C28  142     0.062212     12.01000 ; qtot -7.682
   143   os     1   UNK    O9  143    -0.377436     16.00000 ; qtot -8.059
   144   c3     1   UNK   C29  144     0.070077     12.01000 ; qtot -7.989
   145   c3     1   UNK   C30  145     0.070114     12.01000 ; qtot -7.919
   146   os     1   UNK   O10  146    -0.376668     16.00000 ; qtot -8.296
   147   c3     1   UNK   C31  147     0.070114     12.01000 ; qtot -8.226
   148   c3     1   UNK   C32  148     0.070114     12.01000 ; qtot -8.156
   149   os     1   UNK   O11  149    -0.376668     16.00000 ; qtot -8.532
   150   c3     1   UNK   C33  150     0.070114     12.01000 ; qtot -8.462
   151   c3     1   UNK   C34  151     0.070079     12.01000 ; qtot -8.392
   152   os     1   UNK   O12  152    -0.377345     16.00000 ; qtot -8.769
   153   c3     1   UNK   C35  153     0.064459     12.01000 ; qtot -8.705
   154   c3     1   UNK   C36  154     0.059059     12.01000 ; qtot -8.646
   155   na     1   UNK   N11  155    -0.210020     14.01000 ; qtot -8.856
   156   nc     1   UNK   N12  156    -0.076040     14.01000 ; qtot -8.932
   157   nd     1   UNK   N13  157    -0.136209     14.01000 ; qtot -9.068
   158   cd     1   UNK   C37  158     0.094309     12.01000 ; qtot -8.974
   159   cc     1   UNK   C38  159     0.041051     12.01000 ; qtot -8.933
   160   c3     1   UNK   C39  160     0.044816     12.01000 ; qtot -8.888
   161   hc     1   UNK  HHXT  161     0.023592      1.00800 ; qtot -8.864
   162   hc     1   UNK   H74  162     0.023592      1.00800 ; qtot -8.841
   163   hc     1   UNK   H75  163     0.023592      1.00800 ; qtot -8.817
   164   hc     1   UNK   H76  164     0.023592      1.00800 ; qtot -8.794
   165   hc     1   UNK   H77  165     0.023592      1.00800 ; qtot -8.770
   166   hc     1   UNK   H78  166     0.023592      1.00800 ; qtot -8.746
   167   hc     1   UNK   H79  167     0.023698      1.00800 ; qtot -8.723
   168   hc     1   UNK   H80  168     0.023698      1.00800 ; qtot -8.699
   169   hc     1   UNK   H81  169     0.023698      1.00800 ; qtot -8.675
   170   hc     1   UNK   H82  170     0.027849      1.00800 ; qtot -8.647
   171   hc     1   UNK   H83  171     0.027849      1.00800 ; qtot -8.620
   172   hc     1   UNK   H84  172     0.027237      1.00800 ; qtot -8.592
   173   hc     1   UNK   H85  173     0.027237      1.00800 ; qtot -8.565
   174   hc     1   UNK   H86  174     0.027000      1.00800 ; qtot -8.538
   175   hc     1   UNK   H87  175     0.027000      1.00800 ; qtot -8.511
   176   hc     1   UNK   H88  176     0.027329      1.00800 ; qtot -8.484
   177   hc     1   UNK   H89  177     0.027329      1.00800 ; qtot -8.456
   178   ha     1   UNK   HXT  178     0.057578      1.00800 ; qtot -8.399
   179   hc     1   UNK   H90  179     0.027789      1.00800 ; qtot -8.371
   180   hc     1   UNK   H91  180     0.027789      1.00800 ; qtot -8.343
   181   hc     1   UNK   H92  181     0.023698      1.00800 ; qtot -8.320
   182   hc     1   UNK   H93  182     0.023698      1.00800 ; qtot -8.296
   183   hc     1   UNK   H94  183     0.023698      1.00800 ; qtot -8.272
   184   hc     1   UNK   H95  184     0.031301      1.00800 ; qtot -8.241
   185   hc     1   UNK   H96  185     0.031301      1.00800 ; qtot -8.210
   186   hc     1   UNK   H97  186     0.027777      1.00800 ; qtot -8.182
   187   hc     1   UNK   H98  187     0.027777      1.00800 ; qtot -8.154
   188   hc     1   UNK   H99  188     0.023623      1.00800 ; qtot -8.130
   189   hc     1   UNK  H100  189     0.023623      1.00800 ; qtot -8.107
   190   hc     1   UNK  H101  190     0.023623      1.00800 ; qtot -8.083
   191   hc     1   UNK  H102  191     0.027597      1.00800 ; qtot -8.056
   192   hc     1   UNK  H103  192     0.027597      1.00800 ; qtot -8.028
   193   hc     1   UNK  H104  193     0.029339      1.00800 ; qtot -7.999
   194   hc     1   UNK  H105  194     0.029339      1.00800 ; qtot -7.969
   195   h1     1   UNK  H196  195     0.060617      1.00800 ; qtot -7.909
   196   hc     1   UNK  H197  196     0.036011      1.00800 ; qtot -7.873
   197   hc     1   UNK  H106  197     0.027265      1.00800 ; qtot -7.845
   198   hc     1   UNK  H107  198     0.027265      1.00800 ; qtot -7.818
   199   hc     1   UNK  H198  199     0.031487      1.00800 ; qtot -7.787
   200   hc     1   UNK  H199  200     0.031750      1.00800 ; qtot -7.755
   201   hc     1   UNK  H108  201     0.023644      1.00800 ; qtot -7.731
   202   hc     1   UNK  H109  202     0.023644      1.00800 ; qtot -7.708
   203   hc     1   UNK  H110  203     0.023644      1.00800 ; qtot -7.684
   204   hc     1   UNK  H111  204     0.023951      1.00800 ; qtot -7.660
   205   hc     1   UNK  H112  205     0.023951      1.00800 ; qtot -7.636
   206   hc     1   UNK  H113  206     0.023951      1.00800 ; qtot -7.612
   207   ho     1   UNK    HO  207     0.210474      1.00800 ; qtot -7.402
   208   hc     1   UNK  H114  208     0.023592      1.00800 ; qtot -7.378
   209   hc     1   UNK  H115  209     0.023592      1.00800 ; qtot -7.354
   210   hc     1   UNK  H116  210     0.023592      1.00800 ; qtot -7.331
   211   hc     1   UNK  H117  211     0.023592      1.00800 ; qtot -7.307
   212   hc     1   UNK  H118  212     0.023592      1.00800 ; qtot -7.284
   213   hc     1   UNK  H119  213     0.023592      1.00800 ; qtot -7.260
   214   hc     1   UNK  H120  214     0.023698      1.00800 ; qtot -7.236
   215   hc     1   UNK  H121  215     0.023698      1.00800 ; qtot -7.213
   216   hc     1   UNK  H122  216     0.023698      1.00800 ; qtot -7.189
   217   hc     1   UNK  H123  217     0.027849      1.00800 ; qtot -7.161
   218   hc     1   UNK  H124  218     0.027849      1.00800 ; qtot -7.133
   219   hc     1   UNK  H125  219     0.027237      1.00800 ; qtot -7.106
   220   hc     1   UNK  H126  220     0.027237      1.00800 ; qtot -7.079
   221   hc     1   UNK  H127  221     0.027000      1.00800 ; qtot -7.052
   222   hc     1   UNK  H128  222     0.027000      1.00800 ; qtot -7.025
   223   hc     1   UNK  H129  223     0.027329      1.00800 ; qtot -6.997
   224   hc     1   UNK  H130  224     0.027329      1.00800 ; qtot -6.970
   225   hc     1   UNK  H131  225     0.027789      1.00800 ; qtot -6.942
   226   hc     1   UNK  H132  226     0.027789      1.00800 ; qtot -6.915
   227   hc     1   UNK  H133  227     0.023698      1.00800 ; qtot -6.891
   228   hc     1   UNK  H134  228     0.023698      1.00800 ; qtot -6.867
   229   hc     1   UNK  H135  229     0.023698      1.00800 ; qtot -6.843
   230   hc     1   UNK  H136  230     0.031301      1.00800 ; qtot -6.812
   231   hc     1   UNK  H137  231     0.031301      1.00800 ; qtot -6.781
   232   hc     1   UNK  H138  232     0.027777      1.00800 ; qtot -6.753
   233   hc     1   UNK  H139  233     0.027777      1.00800 ; qtot -6.725
   234   hc     1   UNK  H140  234     0.023623      1.00800 ; qtot -6.702
   235   hc     1   UNK  H141  235     0.023623      1.00800 ; qtot -6.678
   236   hc     1   UNK  H142  236     0.023623      1.00800 ; qtot -6.654
   237   hc     1   UNK  H143  237     0.027597      1.00800 ; qtot -6.627
   238   hc     1   UNK  H144  238     0.027597      1.00800 ; qtot -6.599
   239   hc     1   UNK  H145  239     0.029339      1.00800 ; qtot -6.570
   240   hc     1   UNK  H146  240     0.029339      1.00800 ; qtot -6.541
   241   h1     1   UNK  H200  241     0.060617      1.00800 ; qtot -6.480
   242   hc     1   UNK  H201  242     0.036011      1.00800 ; qtot -6.444
   243   hc     1   UNK  H147  243     0.027265      1.00800 ; qtot -6.417
   244   hc     1   UNK  H148  244     0.027265      1.00800 ; qtot -6.389
   245   hc     1   UNK  H202  245     0.031487      1.00800 ; qtot -6.358
   246   hc     1   UNK  H203  246     0.031750      1.00800 ; qtot -6.326
   247   hc     1   UNK  H149  247     0.023644      1.00800 ; qtot -6.303
   248   hc     1   UNK  H150  248     0.023644      1.00800 ; qtot -6.279
   249   hc     1   UNK  H151  249     0.023644      1.00800 ; qtot -6.255
   250   hc     1   UNK  H152  250     0.023951      1.00800 ; qtot -6.231
   251   hc     1   UNK  H153  251     0.023951      1.00800 ; qtot -6.207
   252   hc     1   UNK  H154  252     0.023951      1.00800 ; qtot -6.183
   253   ho     1   UNK  H209  253     0.210474      1.00800 ; qtot -5.973
   254   hc     1   UNK  H155  254     0.023592      1.00800 ; qtot -5.949
   255   hc     1   UNK  H156  255     0.023592      1.00800 ; qtot -5.926
   256   hc     1   UNK  H157  256     0.023592      1.00800 ; qtot -5.902
   257   hc     1   UNK  H158  257     0.023592      1.00800 ; qtot -5.879
   258   hc     1   UNK  H159  258     0.023592      1.00800 ; qtot -5.855
   259   hc     1   UNK  H160  259     0.023592      1.00800 ; qtot -5.831
   260   hc     1   UNK  H161  260     0.023698      1.00800 ; qtot -5.808
   261   hc     1   UNK  H162  261     0.023698      1.00800 ; qtot -5.784
   262   hc     1   UNK  H163  262     0.023698      1.00800 ; qtot -5.760
   263   hc     1   UNK  H164  263     0.027849      1.00800 ; qtot -5.732
   264   hc     1   UNK  H165  264     0.027849      1.00800 ; qtot -5.705
   265   hc     1   UNK  H166  265     0.027237      1.00800 ; qtot -5.677
   266   hc     1   UNK  H167  266     0.027237      1.00800 ; qtot -5.650
   267   hc     1   UNK  H168  267     0.027000      1.00800 ; qtot -5.623
   268   hc     1   UNK  H169  268     0.027000      1.00800 ; qtot -5.596
   269   hc     1   UNK  H170  269     0.027329      1.00800 ; qtot -5.569
   270   hc     1   UNK  H171  270     0.027329      1.00800 ; qtot -5.541
   271   ha     1   UNK  H204  271     0.057578      1.00800 ; qtot -5.484
   272   hc     1   UNK  H172  272     0.027789      1.00800 ; qtot -5.456
   273   hc     1   UNK  H173  273     0.027789      1.00800 ; qtot -5.428
   274   hc     1   UNK  H174  274     0.023698      1.00800 ; qtot -5.405
   275   hc     1   UNK  H175  275     0.023698      1.00800 ; qtot -5.381
   276   hc     1   UNK  H176  276     0.023698      1.00800 ; qtot -5.357
   277   hc     1   UNK  H177  277     0.031301      1.00800 ; qtot -5.326
   278   hc     1   UNK  H178  278     0.031301      1.00800 ; qtot -5.295
   279   hc     1   UNK  H179  279     0.027777      1.00800 ; qtot -5.267
   280   hc     1   UNK  H180  280     0.027777      1.00800 ; qtot -5.239
   281   hc     1   UNK  H181  281     0.023623      1.00800 ; qtot -5.215
   282   hc     1   UNK  H182  282     0.023623      1.00800 ; qtot -5.192
   283   hc     1   UNK  H183  283     0.023623      1.00800 ; qtot -5.168
   284   hc     1   UNK  H184  284     0.027597      1.00800 ; qtot -5.141
   285   hc     1   UNK  H185  285     0.027597      1.00800 ; qtot -5.113
   286   hc     1   UNK  H186  286     0.029339      1.00800 ; qtot -5.084
   287   hc     1   UNK  H187  287     0.029339      1.00800 ; qtot -5.054
   288   h1     1   UNK  H205  288     0.060617      1.00800 ; qtot -4.994
   289   hc     1   UNK  H206  289     0.036011      1.00800 ; qtot -4.958
   290   hc     1   UNK  H188  290     0.027265      1.00800 ; qtot -4.930
   291   hc     1   UNK  H189  291     0.027265      1.00800 ; qtot -4.903
   292   hc     1   UNK  H207  292     0.031487      1.00800 ; qtot -4.872
   293   hc     1   UNK  H208  293     0.031750      1.00800 ; qtot -4.840
   294   hc     1   UNK  H190  294     0.023644      1.00800 ; qtot -4.816
   295   hc     1   UNK  H191  295     0.023644      1.00800 ; qtot -4.793
   296   hc     1   UNK  H192  296     0.023644      1.00800 ; qtot -4.769
   297   hc     1   UNK  H193  297     0.023951      1.00800 ; qtot -4.745
   298   hc     1   UNK  H194  298     0.023951      1.00800 ; qtot -4.721
   299   hc     1   UNK  H195  299     0.023951      1.00800 ; qtot -4.697
   300   ho     1   UNK  H210  300     0.210474      1.00800 ; qtot -4.487
   301   h1     1   UNK    H1  301     0.049086      1.00800 ; qtot -4.438
   302   h1     1   UNK    H2  302     0.049086      1.00800 ; qtot -4.388
   303   h1     1   UNK    H3  303     0.058323      1.00800 ; qtot -4.330
   304   h1     1   UNK    H4  304     0.058323      1.00800 ; qtot -4.272
   305   h1     1   UNK    H5  305     0.059109      1.00800 ; qtot -4.213
   306   h1     1   UNK    H6  306     0.059109      1.00800 ; qtot -4.154
   307   h1     1   UNK    H7  307     0.059110      1.00800 ; qtot -4.095
   308   h1     1   UNK    H8  308     0.059110      1.00800 ; qtot -4.035
   309   h1     1   UNK    H9  309     0.059110      1.00800 ; qtot -3.976
   310   h1     1   UNK   H10  310     0.059110      1.00800 ; qtot -3.917
   311   h1     1   UNK   H11  311     0.059110      1.00800 ; qtot -3.858
   312   h1     1   UNK   H12  312     0.059110      1.00800 ; qtot -3.799
   313   h1     1   UNK   H13  313     0.059110      1.00800 ; qtot -3.740
   314   h1     1   UNK   H14  314     0.059110      1.00800 ; qtot -3.681
   315   h1     1   UNK   H15  315     0.059109      1.00800 ; qtot -3.622
   316   h1     1   UNK   H16  316     0.059109      1.00800 ; qtot -3.563
   317   h1     1   UNK   H17  317     0.058413      1.00800 ; qtot -3.504
   318   h1     1   UNK   H18  318     0.058413      1.00800 ; qtot -3.446
   319   h1     1   UNK   H19  319     0.051515      1.00800 ; qtot -3.394
   320   h1     1   UNK   H20  320     0.051515      1.00800 ; qtot -3.343
   321   h4     1   UNK   H21  321     0.083083      1.00800 ; qtot -3.260
   322   h1     1   UNK   H22  322     0.049925      1.00800 ; qtot -3.210
   323   h1     1   UNK   H23  323     0.049925      1.00800 ; qtot -3.160
   324   hn     1   UNK   H24  324     0.149439      1.00800 ; qtot -3.010
   325   h1     1   UNK   H25  325     0.049086      1.00800 ; qtot -2.961
   326   h1     1   UNK   H26  326     0.049086      1.00800 ; qtot -2.912
   327   h1     1   UNK   H27  327     0.058323      1.00800 ; qtot -2.854
   328   h1     1   UNK   H28  328     0.058323      1.00800 ; qtot -2.795
   329   h1     1   UNK   H29  329     0.059109      1.00800 ; qtot -2.736
   330   h1     1   UNK   H30  330     0.059109      1.00800 ; qtot -2.677
   331   h1     1   UNK   H31  331     0.059110      1.00800 ; qtot -2.618
   332   h1     1   UNK   H32  332     0.059110      1.00800 ; qtot -2.559
   333   h1     1   UNK   H33  333     0.059110      1.00800 ; qtot -2.500
   334   h1     1   UNK   H34  334     0.059110      1.00800 ; qtot -2.441
   335   h1     1   UNK   H35  335     0.059110      1.00800 ; qtot -2.382
   336   h1     1   UNK   H36  336     0.059110      1.00800 ; qtot -2.323
   337   h1     1   UNK   H37  337     0.059110      1.00800 ; qtot -2.263
   338   h1     1   UNK   H38  338     0.059110      1.00800 ; qtot -2.204
   339   h1     1   UNK   H39  339     0.059109      1.00800 ; qtot -2.145
   340   h1     1   UNK   H40  340     0.059109      1.00800 ; qtot -2.086
   341   h1     1   UNK   H41  341     0.058413      1.00800 ; qtot -2.028
   342   h1     1   UNK   H42  342     0.058413      1.00800 ; qtot -1.969
   343   h1     1   UNK   H43  343     0.051515      1.00800 ; qtot -1.918
   344   h1     1   UNK   H44  344     0.051515      1.00800 ; qtot -1.866
   345   h4     1   UNK   H45  345     0.083083      1.00800 ; qtot -1.783
   346   h1     1   UNK   H46  346     0.049925      1.00800 ; qtot -1.733
   347   h1     1   UNK   H47  347     0.049925      1.00800 ; qtot -1.683
   348   hn     1   UNK   H48  348     0.149439      1.00800 ; qtot -1.534
   349   h1     1   UNK   H49  349     0.049086      1.00800 ; qtot -1.485
   350   h1     1   UNK   H50  350     0.049086      1.00800 ; qtot -1.436
   351   h1     1   UNK   H51  351     0.058323      1.00800 ; qtot -1.377
   352   h1     1   UNK   H52  352     0.058323      1.00800 ; qtot -1.319
   353   h1     1   UNK   H53  353     0.059109      1.00800 ; qtot -1.260
   354   h1     1   UNK   H54  354     0.059109      1.00800 ; qtot -1.201
   355   h1     1   UNK   H55  355     0.059110      1.00800 ; qtot -1.142
   356   h1     1   UNK   H56  356     0.059110      1.00800 ; qtot -1.083
   357   h1     1   UNK   H57  357     0.059110      1.00800 ; qtot -1.024
   358   h1     1   UNK   H58  358     0.059110      1.00800 ; qtot -0.964
   359   h1     1   UNK   H59  359     0.059110      1.00800 ; qtot -0.905
   360   h1     1   UNK   H60  360     0.059110      1.00800 ; qtot -0.846
   361   h1     1   UNK   H61  361     0.059110      1.00800 ; qtot -0.787
   362   h1     1   UNK   H62  362     0.059110      1.00800 ; qtot -0.728
   363   h1     1   UNK   H63  363     0.059109      1.00800 ; qtot -0.669
   364   h1     1   UNK   H64  364     0.059109      1.00800 ; qtot -0.610
   365   h1     1   UNK   H65  365     0.058413      1.00800 ; qtot -0.551
   366   h1     1   UNK   H66  366     0.058413      1.00800 ; qtot -0.493
   367   h1     1   UNK   H67  367     0.051515      1.00800 ; qtot -0.441
   368   h1     1   UNK   H68  368     0.051515      1.00800 ; qtot -0.390
   369   h4     1   UNK   H69  369     0.083083      1.00800 ; qtot -0.307
   370   h1     1   UNK   H70  370     0.049925      1.00800 ; qtot -0.257
   371   h1     1   UNK   H71  371     0.049925      1.00800 ; qtot -0.207
   372   ha     1   UNK   H72  372     0.057578      1.00800 ; qtot -0.149
   373   hn     1   UNK   H73  373     0.149439      1.00800 ; qtot -0.000

[ bonds ]
;   ai     aj funct   r             k
     1      8   1    1.5375e-01    2.5179e+05 ;      C - C46   
     1    161   1    1.0969e-01    2.7665e+05 ;      C - HHXT  
     1    162   1    1.0969e-01    2.7665e+05 ;      C - H74   
     1    163   1    1.0969e-01    2.7665e+05 ;      C - H75   
     2      8   1    1.5375e-01    2.5179e+05 ;    C40 - C46   
     2    164   1    1.0969e-01    2.7665e+05 ;    C40 - H76   
     2    165   1    1.0969e-01    2.7665e+05 ;    C40 - H77   
     2    166   1    1.0969e-01    2.7665e+05 ;    C40 - H78   
     3     18   1    1.5375e-01    2.5179e+05 ;    C41 - C56   
     3    167   1    1.0969e-01    2.7665e+05 ;    C41 - H79   
     3    168   1    1.0969e-01    2.7665e+05 ;    C41 - H80   
     3    169   1    1.0969e-01    2.7665e+05 ;    C41 - H81   
     4      8   1    1.5375e-01    2.5179e+05 ;    C42 - C46   
     4     20   1    1.5375e-01    2.5179e+05 ;    C42 - C58   
     4    170   1    1.0969e-01    2.7665e+05 ;    C42 - H82   
     4    171   1    1.0969e-01    2.7665e+05 ;    C42 - H83   
     5      8   1    1.5375e-01    2.5179e+05 ;    C43 - C46   
     5     14   1    1.5375e-01    2.5179e+05 ;    C43 - C52   
     5    172   1    1.0969e-01    2.7665e+05 ;    C43 - H84   
     5    173   1    1.0969e-01    2.7665e+05 ;    C43 - H85   
     6     21   1    1.5375e-01    2.5179e+05 ;    C44 - C59   
     6     24   1    1.5375e-01    2.5179e+05 ;    C44 - C62   
     6    174   1    1.0969e-01    2.7665e+05 ;    C44 - H86   
     6    175   1    1.0969e-01    2.7665e+05 ;    C44 - H87   
     7     17   1    1.5375e-01    2.5179e+05 ;    C45 - C55   
     7     22   1    1.5375e-01    2.5179e+05 ;    C45 - C60   
     7    176   1    1.0969e-01    2.7665e+05 ;    C45 - H88   
     7    177   1    1.0969e-01    2.7665e+05 ;    C45 - H89   
     9     10   1    1.3343e-01    4.7647e+05 ;    C47 - C48   
     9     13   1    1.5095e-01    2.7347e+05 ;    C47 - C51   
     9    178   1    1.0879e-01    2.8711e+05 ;    C47 - HXT   
    10     20   1    1.5095e-01    2.7347e+05 ;    C48 - C58   
    10     29   1    1.5095e-01    2.7347e+05 ;    C48 - C67   
    11     16   1    1.5375e-01    2.5179e+05 ;    C49 - C54   
    11     25   1    1.5375e-01    2.5179e+05 ;    C49 - C63   
    11    179   1    1.0969e-01    2.7665e+05 ;    C49 - H90   
    11    180   1    1.0969e-01    2.7665e+05 ;    C49 - H91   
    12     18   1    1.5375e-01    2.5179e+05 ;    C50 - C56   
    12    181   1    1.0969e-01    2.7665e+05 ;    C50 - H92   
    12    182   1    1.0969e-01    2.7665e+05 ;    C50 - H93   
    12    183   1    1.0969e-01    2.7665e+05 ;    C50 - H94   
    13     26   1    1.5375e-01    2.5179e+05 ;    C51 - C64   
    13    184   1    1.0969e-01    2.7665e+05 ;    C51 - H95   
    13    185   1    1.0969e-01    2.7665e+05 ;    C51 - H96   
    14     25   1    1.5375e-01    2.5179e+05 ;    C52 - C63   
    14    186   1    1.0969e-01    2.7665e+05 ;    C52 - H97   
    14    187   1    1.0969e-01    2.7665e+05 ;    C52 - H98   
    15     22   1    1.5375e-01    2.5179e+05 ;    C53 - C60   
    15    188   1    1.0969e-01    2.7665e+05 ;    C53 - H99   
    15    189   1    1.0969e-01    2.7665e+05 ;    C53 - H100  
    15    190   1    1.0969e-01    2.7665e+05 ;    C53 - H101  
    16     29   1    1.5375e-01    2.5179e+05 ;    C54 - C67   
    16    191   1    1.0969e-01    2.7665e+05 ;    C54 - H102  
    16    192   1    1.0969e-01    2.7665e+05 ;    C54 - H103  
    17     19   1    1.5375e-01    2.5179e+05 ;    C55 - C57   
    17    193   1    1.0969e-01    2.7665e+05 ;    C55 - H104  
    17    194   1    1.0969e-01    2.7665e+05 ;    C55 - H105  
    18     19   1    1.5375e-01    2.5179e+05 ;    C56 - C57   
    18     24   1    1.5375e-01    2.5179e+05 ;    C56 - C62   
    19     31   1    1.4233e-01    2.6501e+05 ;    C57 - O     
    19    195   1    1.0969e-01    2.7665e+05 ;    C57 - H196  
    20     25   1    1.5375e-01    2.5179e+05 ;    C58 - C63   
    20    196   1    1.0969e-01    2.7665e+05 ;    C58 - H197  
    21     23   1    1.5375e-01    2.5179e+05 ;    C59 - C61   
    21    197   1    1.0969e-01    2.7665e+05 ;    C59 - H106  
    21    198   1    1.0969e-01    2.7665e+05 ;    C59 - H107  
    22     24   1    1.5375e-01    2.5179e+05 ;    C60 - C62   
    22     26   1    1.5375e-01    2.5179e+05 ;    C60 - C64   
    23     26   1    1.5375e-01    2.5179e+05 ;    C61 - C64   
    23     27   1    1.5375e-01    2.5179e+05 ;    C61 - C65   
    23     29   1    1.5375e-01    2.5179e+05 ;    C61 - C67   
    24    199   1    1.0969e-01    2.7665e+05 ;    C62 - H198  
    25     28   1    1.5241e-01    2.6192e+05 ;    C63 - C66   
    26    200   1    1.0969e-01    2.7665e+05 ;    C64 - H199  
    27    201   1    1.0969e-01    2.7665e+05 ;    C65 - H108  
    27    202   1    1.0969e-01    2.7665e+05 ;    C65 - H109  
    27    203   1    1.0969e-01    2.7665e+05 ;    C65 - H110  
    28     32   1    1.2183e-01    5.3363e+05 ;    C66 - O13   
    28     33   1    1.3789e-01    3.5782e+05 ;    C66 - N1    
    29     30   1    1.5375e-01    2.5179e+05 ;    C67 - C68   
    30    204   1    1.0969e-01    2.7665e+05 ;    C68 - H111  
    30    205   1    1.0969e-01    2.7665e+05 ;    C68 - H112  
    30    206   1    1.0969e-01    2.7665e+05 ;    C68 - H113  
    31    207   1    9.7300e-02    3.1079e+05 ;      O - HO    
    33    121   1    1.4619e-01    2.7506e+05 ;     N1 - C14   
    33    324   1    1.0129e-01    3.3740e+05 ;     N1 - H24   
    34     41   1    1.5375e-01    2.5179e+05 ;    C69 - C76   
    34    208   1    1.0969e-01    2.7665e+05 ;    C69 - H114  
    34    209   1    1.0969e-01    2.7665e+05 ;    C69 - H115  
    34    210   1    1.0969e-01    2.7665e+05 ;    C69 - H116  
    35     41   1    1.5375e-01    2.5179e+05 ;    C70 - C76   
    35    211   1    1.0969e-01    2.7665e+05 ;    C70 - H117  
    35    212   1    1.0969e-01    2.7665e+05 ;    C70 - H118  
    35    213   1    1.0969e-01    2.7665e+05 ;    C70 - H119  
    36     51   1    1.5375e-01    2.5179e+05 ;    C71 - C86   
    36    214   1    1.0969e-01    2.7665e+05 ;    C71 - H120  
    36    215   1    1.0969e-01    2.7665e+05 ;    C71 - H121  
    36    216   1    1.0969e-01    2.7665e+05 ;    C71 - H122  
    37     41   1    1.5375e-01    2.5179e+05 ;    C72 - C76   
    37     53   1    1.5375e-01    2.5179e+05 ;    C72 - C88   
    37    217   1    1.0969e-01    2.7665e+05 ;    C72 - H123  
    37    218   1    1.0969e-01    2.7665e+05 ;    C72 - H124  
    38     41   1    1.5375e-01    2.5179e+05 ;    C73 - C76   
    38     47   1    1.5375e-01    2.5179e+05 ;    C73 - C82   
    38    219   1    1.0969e-01    2.7665e+05 ;    C73 - H125  
    38    220   1    1.0969e-01    2.7665e+05 ;    C73 - H126  
    39     54   1    1.5375e-01    2.5179e+05 ;    C74 - C89   
    39     57   1    1.5375e-01    2.5179e+05 ;    C74 - C92   
    39    221   1    1.0969e-01    2.7665e+05 ;    C74 - H127  
    39    222   1    1.0969e-01    2.7665e+05 ;    C74 - H128  
    40     50   1    1.5375e-01    2.5179e+05 ;    C75 - C85   
    40     55   1    1.5375e-01    2.5179e+05 ;    C75 - C90   
    40    223   1    1.0969e-01    2.7665e+05 ;    C75 - H129  
    40    224   1    1.0969e-01    2.7665e+05 ;    C75 - H130  
    42     43   1    1.3343e-01    4.7647e+05 ;    C77 - C78   
    42     46   1    1.5095e-01    2.7347e+05 ;    C77 - C81   
    42    372   1    1.0879e-01    2.8711e+05 ;    C77 - H72   
    43     53   1    1.5095e-01    2.7347e+05 ;    C78 - C88   
    43     62   1    1.5095e-01    2.7347e+05 ;    C78 - C97   
    44     49   1    1.5375e-01    2.5179e+05 ;    C79 - C84   
    44     58   1    1.5375e-01    2.5179e+05 ;    C79 - C93   
    44    225   1    1.0969e-01    2.7665e+05 ;    C79 - H131  
    44    226   1    1.0969e-01    2.7665e+05 ;    C79 - H132  
    45     51   1    1.5375e-01    2.5179e+05 ;    C80 - C86   
    45    227   1    1.0969e-01    2.7665e+05 ;    C80 - H133  
    45    228   1    1.0969e-01    2.7665e+05 ;    C80 - H134  
    45    229   1    1.0969e-01    2.7665e+05 ;    C80 - H135  
    46     59   1    1.5375e-01    2.5179e+05 ;    C81 - C94   
    46    230   1    1.0969e-01    2.7665e+05 ;    C81 - H136  
    46    231   1    1.0969e-01    2.7665e+05 ;    C81 - H137  
    47     58   1    1.5375e-01    2.5179e+05 ;    C82 - C93   
    47    232   1    1.0969e-01    2.7665e+05 ;    C82 - H138  
    47    233   1    1.0969e-01    2.7665e+05 ;    C82 - H139  
    48     55   1    1.5375e-01    2.5179e+05 ;    C83 - C90   
    48    234   1    1.0969e-01    2.7665e+05 ;    C83 - H140  
    48    235   1    1.0969e-01    2.7665e+05 ;    C83 - H141  
    48    236   1    1.0969e-01    2.7665e+05 ;    C83 - H142  
    49     62   1    1.5375e-01    2.5179e+05 ;    C84 - C97   
    49    237   1    1.0969e-01    2.7665e+05 ;    C84 - H143  
    49    238   1    1.0969e-01    2.7665e+05 ;    C84 - H144  
    50     52   1    1.5375e-01    2.5179e+05 ;    C85 - C87   
    50    239   1    1.0969e-01    2.7665e+05 ;    C85 - H145  
    50    240   1    1.0969e-01    2.7665e+05 ;    C85 - H146  
    51     52   1    1.5375e-01    2.5179e+05 ;    C86 - C87   
    51     57   1    1.5375e-01    2.5179e+05 ;    C86 - C92   
    52     64   1    1.4233e-01    2.6501e+05 ;    C87 - O14   
    52    241   1    1.0969e-01    2.7665e+05 ;    C87 - H200  
    53     58   1    1.5375e-01    2.5179e+05 ;    C88 - C93   
    53    242   1    1.0969e-01    2.7665e+05 ;    C88 - H201  
    54     56   1    1.5375e-01    2.5179e+05 ;    C89 - C91   
    54    243   1    1.0969e-01    2.7665e+05 ;    C89 - H147  
    54    244   1    1.0969e-01    2.7665e+05 ;    C89 - H148  
    55     57   1    1.5375e-01    2.5179e+05 ;    C90 - C92   
    55     59   1    1.5375e-01    2.5179e+05 ;    C90 - C94   
    56     59   1    1.5375e-01    2.5179e+05 ;    C91 - C94   
    56     60   1    1.5375e-01    2.5179e+05 ;    C91 - C95   
    56     62   1    1.5375e-01    2.5179e+05 ;    C91 - C97   
    57    245   1    1.0969e-01    2.7665e+05 ;    C92 - H202  
    58     61   1    1.5241e-01    2.6192e+05 ;    C93 - C96   
    59    246   1    1.0969e-01    2.7665e+05 ;    C94 - H203  
    60    247   1    1.0969e-01    2.7665e+05 ;    C95 - H149  
    60    248   1    1.0969e-01    2.7665e+05 ;    C95 - H150  
    60    249   1    1.0969e-01    2.7665e+05 ;    C95 - H151  
    61     65   1    1.2183e-01    5.3363e+05 ;    C96 - O15   
    61     66   1    1.3789e-01    3.5782e+05 ;    C96 - N2    
    62     63   1    1.5375e-01    2.5179e+05 ;    C97 - C98   
    63    250   1    1.0969e-01    2.7665e+05 ;    C98 - H152  
    63    251   1    1.0969e-01    2.7665e+05 ;    C98 - H153  
    63    252   1    1.0969e-01    2.7665e+05 ;    C98 - H154  
    64    253   1    9.7300e-02    3.1079e+05 ;    O14 - H209  
    66    100   1    1.4619e-01    2.7506e+05 ;     N2 - C1    
    66    373   1    1.0129e-01    3.3740e+05 ;     N2 - H73   
    67     74   1    1.5375e-01    2.5179e+05 ;    C99 - C106  
    67    254   1    1.0969e-01    2.7665e+05 ;    C99 - H155  
    67    255   1    1.0969e-01    2.7665e+05 ;    C99 - H156  
    67    256   1    1.0969e-01    2.7665e+05 ;    C99 - H157  
    68     74   1    1.5375e-01    2.5179e+05 ;   C100 - C106  
    68    257   1    1.0969e-01    2.7665e+05 ;   C100 - H158  
    68    258   1    1.0969e-01    2.7665e+05 ;   C100 - H159  
    68    259   1    1.0969e-01    2.7665e+05 ;   C100 - H160  
    69     84   1    1.5375e-01    2.5179e+05 ;   C101 - C116  
    69    260   1    1.0969e-01    2.7665e+05 ;   C101 - H161  
    69    261   1    1.0969e-01    2.7665e+05 ;   C101 - H162  
    69    262   1    1.0969e-01    2.7665e+05 ;   C101 - H163  
    70     74   1    1.5375e-01    2.5179e+05 ;   C102 - C106  
    70     86   1    1.5375e-01    2.5179e+05 ;   C102 - C118  
    70    263   1    1.0969e-01    2.7665e+05 ;   C102 - H164  
    70    264   1    1.0969e-01    2.7665e+05 ;   C102 - H165  
    71     74   1    1.5375e-01    2.5179e+05 ;   C103 - C106  
    71     80   1    1.5375e-01    2.5179e+05 ;   C103 - C112  
    71    265   1    1.0969e-01    2.7665e+05 ;   C103 - H166  
    71    266   1    1.0969e-01    2.7665e+05 ;   C103 - H167  
    72     87   1    1.5375e-01    2.5179e+05 ;   C104 - C119  
    72     90   1    1.5375e-01    2.5179e+05 ;   C104 - C122  
    72    267   1    1.0969e-01    2.7665e+05 ;   C104 - H168  
    72    268   1    1.0969e-01    2.7665e+05 ;   C104 - H169  
    73     83   1    1.5375e-01    2.5179e+05 ;   C105 - C115  
    73     88   1    1.5375e-01    2.5179e+05 ;   C105 - C120  
    73    269   1    1.0969e-01    2.7665e+05 ;   C105 - H170  
    73    270   1    1.0969e-01    2.7665e+05 ;   C105 - H171  
    75     76   1    1.3343e-01    4.7647e+05 ;   C107 - C108  
    75     79   1    1.5095e-01    2.7347e+05 ;   C107 - C111  
    75    271   1    1.0879e-01    2.8711e+05 ;   C107 - H204  
    76     86   1    1.5095e-01    2.7347e+05 ;   C108 - C118  
    76     95   1    1.5095e-01    2.7347e+05 ;   C108 - C127  
    77     82   1    1.5375e-01    2.5179e+05 ;   C109 - C114  
    77     91   1    1.5375e-01    2.5179e+05 ;   C109 - C123  
    77    272   1    1.0969e-01    2.7665e+05 ;   C109 - H172  
    77    273   1    1.0969e-01    2.7665e+05 ;   C109 - H173  
    78     84   1    1.5375e-01    2.5179e+05 ;   C110 - C116  
    78    274   1    1.0969e-01    2.7665e+05 ;   C110 - H174  
    78    275   1    1.0969e-01    2.7665e+05 ;   C110 - H175  
    78    276   1    1.0969e-01    2.7665e+05 ;   C110 - H176  
    79     92   1    1.5375e-01    2.5179e+05 ;   C111 - C124  
    79    277   1    1.0969e-01    2.7665e+05 ;   C111 - H177  
    79    278   1    1.0969e-01    2.7665e+05 ;   C111 - H178  
    80     91   1    1.5375e-01    2.5179e+05 ;   C112 - C123  
    80    279   1    1.0969e-01    2.7665e+05 ;   C112 - H179  
    80    280   1    1.0969e-01    2.7665e+05 ;   C112 - H180  
    81     88   1    1.5375e-01    2.5179e+05 ;   C113 - C120  
    81    281   1    1.0969e-01    2.7665e+05 ;   C113 - H181  
    81    282   1    1.0969e-01    2.7665e+05 ;   C113 - H182  
    81    283   1    1.0969e-01    2.7665e+05 ;   C113 - H183  
    82     95   1    1.5375e-01    2.5179e+05 ;   C114 - C127  
    82    284   1    1.0969e-01    2.7665e+05 ;   C114 - H184  
    82    285   1    1.0969e-01    2.7665e+05 ;   C114 - H185  
    83     85   1    1.5375e-01    2.5179e+05 ;   C115 - C117  
    83    286   1    1.0969e-01    2.7665e+05 ;   C115 - H186  
    83    287   1    1.0969e-01    2.7665e+05 ;   C115 - H187  
    84     85   1    1.5375e-01    2.5179e+05 ;   C116 - C117  
    84     90   1    1.5375e-01    2.5179e+05 ;   C116 - C122  
    85     97   1    1.4233e-01    2.6501e+05 ;   C117 - O16   
    85    288   1    1.0969e-01    2.7665e+05 ;   C117 - H205  
    86     91   1    1.5375e-01    2.5179e+05 ;   C118 - C123  
    86    289   1    1.0969e-01    2.7665e+05 ;   C118 - H206  
    87     89   1    1.5375e-01    2.5179e+05 ;   C119 - C121  
    87    290   1    1.0969e-01    2.7665e+05 ;   C119 - H188  
    87    291   1    1.0969e-01    2.7665e+05 ;   C119 - H189  
    88     90   1    1.5375e-01    2.5179e+05 ;   C120 - C122  
    88     92   1    1.5375e-01    2.5179e+05 ;   C120 - C124  
    89     92   1    1.5375e-01    2.5179e+05 ;   C121 - C124  
    89     93   1    1.5375e-01    2.5179e+05 ;   C121 - C125  
    89     95   1    1.5375e-01    2.5179e+05 ;   C121 - C127  
    90    292   1    1.0969e-01    2.7665e+05 ;   C122 - H207  
    91     94   1    1.5241e-01    2.6192e+05 ;   C123 - C126  
    92    293   1    1.0969e-01    2.7665e+05 ;   C124 - H208  
    93    294   1    1.0969e-01    2.7665e+05 ;   C125 - H190  
    93    295   1    1.0969e-01    2.7665e+05 ;   C125 - H191  
    93    296   1    1.0969e-01    2.7665e+05 ;   C125 - H192  
    94     98   1    1.2183e-01    5.3363e+05 ;   C126 - O17   
    94     99   1    1.3789e-01    3.5782e+05 ;   C126 - N3    
    95     96   1    1.5375e-01    2.5179e+05 ;   C127 - C128  
    96    297   1    1.0969e-01    2.7665e+05 ;   C128 - H193  
    96    298   1    1.0969e-01    2.7665e+05 ;   C128 - H194  
    96    299   1    1.0969e-01    2.7665e+05 ;   C128 - H195  
    97    300   1    9.7300e-02    3.1079e+05 ;    O16 - H210  
    99    141   1    1.4619e-01    2.7506e+05 ;     N3 - C27   
    99    348   1    1.0129e-01    3.3740e+05 ;     N3 - H48   
   100    101   1    1.5375e-01    2.5179e+05 ;     C1 - C2    
   100    301   1    1.0969e-01    2.7665e+05 ;     C1 - H1    
   100    302   1    1.0969e-01    2.7665e+05 ;     C1 - H2    
   101    102   1    1.4316e-01    2.5824e+05 ;     C2 - O1    
   101    303   1    1.0969e-01    2.7665e+05 ;     C2 - H3    
   101    304   1    1.0969e-01    2.7665e+05 ;     C2 - H4    
   102    103   1    1.4316e-01    2.5824e+05 ;     O1 - C3    
   103    104   1    1.5375e-01    2.5179e+05 ;     C3 - C4    
   103    305   1    1.0969e-01    2.7665e+05 ;     C3 - H5    
   103    306   1    1.0969e-01    2.7665e+05 ;     C3 - H6    
   104    105   1    1.4316e-01    2.5824e+05 ;     C4 - O2    
   104    307   1    1.0969e-01    2.7665e+05 ;     C4 - H7    
   104    308   1    1.0969e-01    2.7665e+05 ;     C4 - H8    
   105    106   1    1.4316e-01    2.5824e+05 ;     O2 - C5    
   106    107   1    1.5375e-01    2.5179e+05 ;     C5 - C6    
   106    309   1    1.0969e-01    2.7665e+05 ;     C5 - H9    
   106    310   1    1.0969e-01    2.7665e+05 ;     C5 - H10   
   107    108   1    1.4316e-01    2.5824e+05 ;     C6 - O3    
   107    311   1    1.0969e-01    2.7665e+05 ;     C6 - H11   
   107    312   1    1.0969e-01    2.7665e+05 ;     C6 - H12   
   108    109   1    1.4316e-01    2.5824e+05 ;     O3 - C7    
   109    110   1    1.5375e-01    2.5179e+05 ;     C7 - C8    
   109    313   1    1.0969e-01    2.7665e+05 ;     C7 - H13   
   109    314   1    1.0969e-01    2.7665e+05 ;     C7 - H14   
   110    111   1    1.4316e-01    2.5824e+05 ;     C8 - O4    
   110    315   1    1.0969e-01    2.7665e+05 ;     C8 - H15   
   110    316   1    1.0969e-01    2.7665e+05 ;     C8 - H16   
   111    112   1    1.4316e-01    2.5824e+05 ;     O4 - C9    
   112    113   1    1.5375e-01    2.5179e+05 ;     C9 - C10   
   112    317   1    1.0969e-01    2.7665e+05 ;     C9 - H17   
   112    318   1    1.0969e-01    2.7665e+05 ;     C9 - H18   
   113    114   1    1.4629e-01    2.7422e+05 ;    C10 - N4    
   113    319   1    1.0969e-01    2.7665e+05 ;    C10 - H19   
   113    320   1    1.0969e-01    2.7665e+05 ;    C10 - H20   
   114    115   1    1.3558e-01    4.3965e+05 ;     N4 - N5    
   114    118   1    1.3802e-01    3.5631e+05 ;     N4 - C12   
   115    116   1    1.2988e-01    5.3346e+05 ;     N5 - N6    
   116    117   1    1.3694e-01    3.6911e+05 ;     N6 - C11   
   117    118   1    1.3729e-01    4.1915e+05 ;    C11 - C12   
   117    119   1    1.5015e-01    2.8016e+05 ;    C11 - C13   
   118    321   1    1.0817e-01    2.9455e+05 ;    C12 - H21   
   119    120   1    1.4647e-01    2.7271e+05 ;    C13 - N7    
   119    322   1    1.0969e-01    2.7665e+05 ;    C13 - H22   
   119    323   1    1.0969e-01    2.7665e+05 ;    C13 - H23   
   120    140   1    1.4647e-01    2.7271e+05 ;     N7 - C26   
   120    160   1    1.4647e-01    2.7271e+05 ;     N7 - C39   
   121    122   1    1.5375e-01    2.5179e+05 ;    C14 - C15   
   121    325   1    1.0969e-01    2.7665e+05 ;    C14 - H25   
   121    326   1    1.0969e-01    2.7665e+05 ;    C14 - H26   
   122    123   1    1.4316e-01    2.5824e+05 ;    C15 - O5    
   122    327   1    1.0969e-01    2.7665e+05 ;    C15 - H27   
   122    328   1    1.0969e-01    2.7665e+05 ;    C15 - H28   
   123    124   1    1.4316e-01    2.5824e+05 ;     O5 - C16   
   124    125   1    1.5375e-01    2.5179e+05 ;    C16 - C17   
   124    329   1    1.0969e-01    2.7665e+05 ;    C16 - H29   
   124    330   1    1.0969e-01    2.7665e+05 ;    C16 - H30   
   125    126   1    1.4316e-01    2.5824e+05 ;    C17 - O6    
   125    331   1    1.0969e-01    2.7665e+05 ;    C17 - H31   
   125    332   1    1.0969e-01    2.7665e+05 ;    C17 - H32   
   126    127   1    1.4316e-01    2.5824e+05 ;     O6 - C18   
   127    128   1    1.5375e-01    2.5179e+05 ;    C18 - C19   
   127    333   1    1.0969e-01    2.7665e+05 ;    C18 - H33   
   127    334   1    1.0969e-01    2.7665e+05 ;    C18 - H34   
   128    129   1    1.4316e-01    2.5824e+05 ;    C19 - O7    
   128    335   1    1.0969e-01    2.7665e+05 ;    C19 - H35   
   128    336   1    1.0969e-01    2.7665e+05 ;    C19 - H36   
   129    130   1    1.4316e-01    2.5824e+05 ;     O7 - C20   
   130    131   1    1.5375e-01    2.5179e+05 ;    C20 - C21   
   130    337   1    1.0969e-01    2.7665e+05 ;    C20 - H37   
   130    338   1    1.0969e-01    2.7665e+05 ;    C20 - H38   
   131    132   1    1.4316e-01    2.5824e+05 ;    C21 - O8    
   131    339   1    1.0969e-01    2.7665e+05 ;    C21 - H39   
   131    340   1    1.0969e-01    2.7665e+05 ;    C21 - H40   
   132    133   1    1.4316e-01    2.5824e+05 ;     O8 - C22   
   133    134   1    1.5375e-01    2.5179e+05 ;    C22 - C23   
   133    341   1    1.0969e-01    2.7665e+05 ;    C22 - H41   
   133    342   1    1.0969e-01    2.7665e+05 ;    C22 - H42   
   134    135   1    1.4629e-01    2.7422e+05 ;    C23 - N8    
   134    343   1    1.0969e-01    2.7665e+05 ;    C23 - H43   
   134    344   1    1.0969e-01    2.7665e+05 ;    C23 - H44   
   135    136   1    1.3558e-01    4.3965e+05 ;     N8 - N9    
   135    139   1    1.3802e-01    3.5631e+05 ;     N8 - C25   
   136    137   1    1.2988e-01    5.3346e+05 ;     N9 - N10   
   137    138   1    1.3694e-01    3.6911e+05 ;    N10 - C24   
   138    139   1    1.3729e-01    4.1915e+05 ;    C24 - C25   
   138    140   1    1.5015e-01    2.8016e+05 ;    C24 - C26   
   139    345   1    1.0817e-01    2.9455e+05 ;    C25 - H45   
   140    346   1    1.0969e-01    2.7665e+05 ;    C26 - H46   
   140    347   1    1.0969e-01    2.7665e+05 ;    C26 - H47   
   141    142   1    1.5375e-01    2.5179e+05 ;    C27 - C28   
   141    349   1    1.0969e-01    2.7665e+05 ;    C27 - H49   
   141    350   1    1.0969e-01    2.7665e+05 ;    C27 - H50   
   142    143   1    1.4316e-01    2.5824e+05 ;    C28 - O9    
   142    351   1    1.0969e-01    2.7665e+05 ;    C28 - H51   
   142    352   1    1.0969e-01    2.7665e+05 ;    C28 - H52   
   143    144   1    1.4316e-01    2.5824e+05 ;     O9 - C29   
   144    145   1    1.5375e-01    2.5179e+05 ;    C29 - C30   
   144    353   1    1.0969e-01    2.7665e+05 ;    C29 - H53   
   144    354   1    1.0969e-01    2.7665e+05 ;    C29 - H54   
   145    146   1    1.4316e-01    2.5824e+05 ;    C30 - O10   
   145    355   1    1.0969e-01    2.7665e+05 ;    C30 - H55   
   145    356   1    1.0969e-01    2.7665e+05 ;    C30 - H56   
   146    147   1    1.4316e-01    2.5824e+05 ;    O10 - C31   
   147    148   1    1.5375e-01    2.5179e+05 ;    C31 - C32   
   147    357   1    1.0969e-01    2.7665e+05 ;    C31 - H57   
   147    358   1    1.0969e-01    2.7665e+05 ;    C31 - H58   
   148    149   1    1.4316e-01    2.5824e+05 ;    C32 - O11   
   148    359   1    1.0969e-01    2.7665e+05 ;    C32 - H59   
   148    360   1    1.0969e-01    2.7665e+05 ;    C32 - H60   
   149    150   1    1.4316e-01    2.5824e+05 ;    O11 - C33   
   150    151   1    1.5375e-01    2.5179e+05 ;    C33 - C34   
   150    361   1    1.0969e-01    2.7665e+05 ;    C33 - H61   
   150    362   1    1.0969e-01    2.7665e+05 ;    C33 - H62   
   151    152   1    1.4316e-01    2.5824e+05 ;    C34 - O12   
   151    363   1    1.0969e-01    2.7665e+05 ;    C34 - H63   
   151    364   1    1.0969e-01    2.7665e+05 ;    C34 - H64   
   152    153   1    1.4316e-01    2.5824e+05 ;    O12 - C35   
   153    154   1    1.5375e-01    2.5179e+05 ;    C35 - C36   
   153    365   1    1.0969e-01    2.7665e+05 ;    C35 - H65   
   153    366   1    1.0969e-01    2.7665e+05 ;    C35 - H66   
   154    155   1    1.4629e-01    2.7422e+05 ;    C36 - N11   
   154    367   1    1.0969e-01    2.7665e+05 ;    C36 - H67   
   154    368   1    1.0969e-01    2.7665e+05 ;    C36 - H68   
   155    156   1    1.3558e-01    4.3965e+05 ;    N11 - N12   
   155    159   1    1.3802e-01    3.5631e+05 ;    N11 - C38   
   156    157   1    1.2988e-01    5.3346e+05 ;    N12 - N13   
   157    158   1    1.3694e-01    3.6911e+05 ;    N13 - C37   
   158    159   1    1.3729e-01    4.1915e+05 ;    C37 - C38   
   158    160   1    1.5015e-01    2.8016e+05 ;    C37 - C39   
   159    369   1    1.0817e-01    2.9455e+05 ;    C38 - H69   
   160    370   1    1.0969e-01    2.7665e+05 ;    C39 - H70   
   160    371   1    1.0969e-01    2.7665e+05 ;    C39 - H71   

[ pairs ]
;   ai     aj    funct
     1     14      1 ;      C - C52   
     1     20      1 ;      C - C58   
     1    164      1 ;      C - H76   
     1    165      1 ;      C - H77   
     1    166      1 ;      C - H78   
     1    170      1 ;      C - H82   
     1    171      1 ;      C - H83   
     1    172      1 ;      C - H84   
     1    173      1 ;      C - H85   
     2     14      1 ;    C40 - C52   
     2     20      1 ;    C40 - C58   
     2    170      1 ;    C40 - H82   
     2    171      1 ;    C40 - H83   
     2    172      1 ;    C40 - H84   
     2    173      1 ;    C40 - H85   
     3      6      1 ;    C41 - C44   
     3     17      1 ;    C41 - C55   
     3     22      1 ;    C41 - C60   
     3     31      1 ;    C41 - O     
     3    181      1 ;    C41 - H92   
     3    182      1 ;    C41 - H93   
     3    183      1 ;    C41 - H94   
     3    195      1 ;    C41 - H196  
     3    199      1 ;    C41 - H198  
     4      9      1 ;    C42 - C47   
     4     11      1 ;    C42 - C49   
     4     14      1 ;    C42 - C52   
     4     28      1 ;    C42 - C66   
     4     29      1 ;    C42 - C67   
     4    164      1 ;    C42 - H76   
     4    165      1 ;    C42 - H77   
     4    166      1 ;    C42 - H78   
     4    172      1 ;    C42 - H84   
     4    173      1 ;    C42 - H85   
     5     11      1 ;    C43 - C49   
     5     20      1 ;    C43 - C58   
     5     28      1 ;    C43 - C66   
     5    164      1 ;    C43 - H76   
     5    165      1 ;    C43 - H77   
     5    166      1 ;    C43 - H78   
     5    170      1 ;    C43 - H82   
     5    171      1 ;    C43 - H83   
     6      7      1 ;    C44 - C45   
     6     12      1 ;    C44 - C50   
     6     15      1 ;    C44 - C53   
     6     19      1 ;    C44 - C57   
     6     26      1 ;    C44 - C64   
     6     27      1 ;    C44 - C65   
     6     29      1 ;    C44 - C67   
     7     13      1 ;    C45 - C51   
     7     18      1 ;    C45 - C56   
     7     23      1 ;    C45 - C61   
     7     31      1 ;    C45 - O     
     7    188      1 ;    C45 - H99   
     7    189      1 ;    C45 - H100  
     7    190      1 ;    C45 - H101  
     7    195      1 ;    C45 - H196  
     7    199      1 ;    C45 - H198  
     7    200      1 ;    C45 - H199  
     8     10      1 ;    C46 - C48   
     8     25      1 ;    C46 - C63   
     8    186      1 ;    C46 - H97   
     8    187      1 ;    C46 - H98   
     8    196      1 ;    C46 - H197  
     9     16      1 ;    C47 - C54   
     9     22      1 ;    C47 - C60   
     9     23      1 ;    C47 - C61   
     9     25      1 ;    C47 - C63   
     9     30      1 ;    C47 - C68   
     9    196      1 ;    C47 - H197  
     9    200      1 ;    C47 - H199  
    10     11      1 ;    C48 - C49   
    10     14      1 ;    C48 - C52   
    10     21      1 ;    C48 - C59   
    10     26      1 ;    C48 - C64   
    10     27      1 ;    C48 - C65   
    10     28      1 ;    C48 - C66   
    10    170      1 ;    C48 - H82   
    10    171      1 ;    C48 - H83   
    10    184      1 ;    C48 - H95   
    10    185      1 ;    C48 - H96   
    10    191      1 ;    C48 - H102  
    10    192      1 ;    C48 - H103  
    10    204      1 ;    C48 - H111  
    10    205      1 ;    C48 - H112  
    10    206      1 ;    C48 - H113  
    11     23      1 ;    C49 - C61   
    11     30      1 ;    C49 - C68   
    11     32      1 ;    C49 - O13   
    11     33      1 ;    C49 - N1    
    11    186      1 ;    C49 - H97   
    11    187      1 ;    C49 - H98   
    11    196      1 ;    C49 - H197  
    12     17      1 ;    C50 - C55   
    12     22      1 ;    C50 - C60   
    12     31      1 ;    C50 - O     
    12    167      1 ;    C50 - H79   
    12    168      1 ;    C50 - H80   
    12    169      1 ;    C50 - H81   
    12    195      1 ;    C50 - H196  
    12    199      1 ;    C50 - H198  
    13     15      1 ;    C51 - C53   
    13     20      1 ;    C51 - C58   
    13     21      1 ;    C51 - C59   
    13     24      1 ;    C51 - C62   
    13     27      1 ;    C51 - C65   
    13     29      1 ;    C51 - C67   
    14     16      1 ;    C52 - C54   
    14     32      1 ;    C52 - O13   
    14     33      1 ;    C52 - N1    
    14    179      1 ;    C52 - H90   
    14    180      1 ;    C52 - H91   
    14    196      1 ;    C52 - H197  
    15     17      1 ;    C53 - C55   
    15     18      1 ;    C53 - C56   
    15     23      1 ;    C53 - C61   
    15    176      1 ;    C53 - H88   
    15    177      1 ;    C53 - H89   
    15    199      1 ;    C53 - H198  
    15    200      1 ;    C53 - H199  
    16     20      1 ;    C54 - C58   
    16     21      1 ;    C54 - C59   
    16     26      1 ;    C54 - C64   
    16     27      1 ;    C54 - C65   
    16     28      1 ;    C54 - C66   
    16    204      1 ;    C54 - H111  
    16    205      1 ;    C54 - H112  
    16    206      1 ;    C54 - H113  
    17     24      1 ;    C55 - C62   
    17     26      1 ;    C55 - C64   
    17    207      1 ;    C55 - HO    
    18     21      1 ;    C56 - C59   
    18     26      1 ;    C56 - C64   
    18    174      1 ;    C56 - H86   
    18    175      1 ;    C56 - H87   
    18    193      1 ;    C56 - H104  
    18    194      1 ;    C56 - H105  
    18    207      1 ;    C56 - HO    
    19     22      1 ;    C57 - C60   
    19    167      1 ;    C57 - H79   
    19    168      1 ;    C57 - H80   
    19    169      1 ;    C57 - H81   
    19    176      1 ;    C57 - H88   
    19    177      1 ;    C57 - H89   
    19    181      1 ;    C57 - H92   
    19    182      1 ;    C57 - H93   
    19    183      1 ;    C57 - H94   
    19    199      1 ;    C57 - H198  
    20     23      1 ;    C58 - C61   
    20     30      1 ;    C58 - C68   
    20     32      1 ;    C58 - O13   
    20     33      1 ;    C58 - N1    
    20    178      1 ;    C58 - HXT   
    20    179      1 ;    C58 - H90   
    20    180      1 ;    C58 - H91   
    20    186      1 ;    C58 - H97   
    20    187      1 ;    C58 - H98   
    21     22      1 ;    C59 - C60   
    21     30      1 ;    C59 - C68   
    21    199      1 ;    C59 - H198  
    21    200      1 ;    C59 - H199  
    21    201      1 ;    C59 - H108  
    21    202      1 ;    C59 - H109  
    21    203      1 ;    C59 - H110  
    22     27      1 ;    C60 - C65   
    22     29      1 ;    C60 - C67   
    22    174      1 ;    C60 - H86   
    22    175      1 ;    C60 - H87   
    22    184      1 ;    C60 - H95   
    22    185      1 ;    C60 - H96   
    22    193      1 ;    C60 - H104  
    22    194      1 ;    C60 - H105  
    23     24      1 ;    C61 - C62   
    23    174      1 ;    C61 - H86   
    23    175      1 ;    C61 - H87   
    23    184      1 ;    C61 - H95   
    23    185      1 ;    C61 - H96   
    23    191      1 ;    C61 - H102  
    23    192      1 ;    C61 - H103  
    23    204      1 ;    C61 - H111  
    23    205      1 ;    C61 - H112  
    23    206      1 ;    C61 - H113  
    24     31      1 ;    C62 - O     
    24    167      1 ;    C62 - H79   
    24    168      1 ;    C62 - H80   
    24    169      1 ;    C62 - H81   
    24    176      1 ;    C62 - H88   
    24    177      1 ;    C62 - H89   
    24    181      1 ;    C62 - H92   
    24    182      1 ;    C62 - H93   
    24    183      1 ;    C62 - H94   
    24    188      1 ;    C62 - H99   
    24    189      1 ;    C62 - H100  
    24    190      1 ;    C62 - H101  
    24    195      1 ;    C62 - H196  
    24    197      1 ;    C62 - H106  
    24    198      1 ;    C62 - H107  
    24    200      1 ;    C62 - H199  
    25     29      1 ;    C63 - C67   
    25    121      1 ;    C63 - C14   
    25    170      1 ;    C63 - H82   
    25    171      1 ;    C63 - H83   
    25    172      1 ;    C63 - H84   
    25    173      1 ;    C63 - H85   
    25    191      1 ;    C63 - H102  
    25    192      1 ;    C63 - H103  
    25    324      1 ;    C63 - H24   
    26     30      1 ;    C64 - C68   
    26    176      1 ;    C64 - H88   
    26    177      1 ;    C64 - H89   
    26    178      1 ;    C64 - HXT   
    26    188      1 ;    C64 - H99   
    26    189      1 ;    C64 - H100  
    26    190      1 ;    C64 - H101  
    26    197      1 ;    C64 - H106  
    26    198      1 ;    C64 - H107  
    26    199      1 ;    C64 - H198  
    26    201      1 ;    C64 - H108  
    26    202      1 ;    C64 - H109  
    26    203      1 ;    C64 - H110  
    27     30      1 ;    C65 - C68   
    27    197      1 ;    C65 - H106  
    27    198      1 ;    C65 - H107  
    27    200      1 ;    C65 - H199  
    28    122      1 ;    C66 - C15   
    28    179      1 ;    C66 - H90   
    28    180      1 ;    C66 - H91   
    28    186      1 ;    C66 - H97   
    28    187      1 ;    C66 - H98   
    28    196      1 ;    C66 - H197  
    28    325      1 ;    C66 - H25   
    28    326      1 ;    C66 - H26   
    29    178      1 ;    C67 - HXT   
    29    179      1 ;    C67 - H90   
    29    180      1 ;    C67 - H91   
    29    196      1 ;    C67 - H197  
    29    197      1 ;    C67 - H106  
    29    198      1 ;    C67 - H107  
    29    200      1 ;    C67 - H199  
    29    201      1 ;    C67 - H108  
    29    202      1 ;    C67 - H109  
    29    203      1 ;    C67 - H110  
    30    191      1 ;    C68 - H102  
    30    192      1 ;    C68 - H103  
    31    193      1 ;      O - H104  
    31    194      1 ;      O - H105  
    32    121      1 ;    O13 - C14   
    32    324      1 ;    O13 - H24   
    33    123      1 ;     N1 - O5    
    33    327      1 ;     N1 - H27   
    33    328      1 ;     N1 - H28   
    34     47      1 ;    C69 - C82   
    34     53      1 ;    C69 - C88   
    34    211      1 ;    C69 - H117  
    34    212      1 ;    C69 - H118  
    34    213      1 ;    C69 - H119  
    34    217      1 ;    C69 - H123  
    34    218      1 ;    C69 - H124  
    34    219      1 ;    C69 - H125  
    34    220      1 ;    C69 - H126  
    35     47      1 ;    C70 - C82   
    35     53      1 ;    C70 - C88   
    35    208      1 ;    C70 - H114  
    35    209      1 ;    C70 - H115  
    35    210      1 ;    C70 - H116  
    35    217      1 ;    C70 - H123  
    35    218      1 ;    C70 - H124  
    35    219      1 ;    C70 - H125  
    35    220      1 ;    C70 - H126  
    36     39      1 ;    C71 - C74   
    36     50      1 ;    C71 - C85   
    36     55      1 ;    C71 - C90   
    36     64      1 ;    C71 - O14   
    36    227      1 ;    C71 - H133  
    36    228      1 ;    C71 - H134  
    36    229      1 ;    C71 - H135  
    36    241      1 ;    C71 - H200  
    36    245      1 ;    C71 - H202  
    37     42      1 ;    C72 - C77   
    37     44      1 ;    C72 - C79   
    37     47      1 ;    C72 - C82   
    37     61      1 ;    C72 - C96   
    37     62      1 ;    C72 - C97   
    37    208      1 ;    C72 - H114  
    37    209      1 ;    C72 - H115  
    37    210      1 ;    C72 - H116  
    37    211      1 ;    C72 - H117  
    37    212      1 ;    C72 - H118  
    37    213      1 ;    C72 - H119  
    37    219      1 ;    C72 - H125  
    37    220      1 ;    C72 - H126  
    38     44      1 ;    C73 - C79   
    38     53      1 ;    C73 - C88   
    38     61      1 ;    C73 - C96   
    38    208      1 ;    C73 - H114  
    38    209      1 ;    C73 - H115  
    38    210      1 ;    C73 - H116  
    38    211      1 ;    C73 - H117  
    38    212      1 ;    C73 - H118  
    38    213      1 ;    C73 - H119  
    38    217      1 ;    C73 - H123  
    38    218      1 ;    C73 - H124  
    39     40      1 ;    C74 - C75   
    39     45      1 ;    C74 - C80   
    39     48      1 ;    C74 - C83   
    39     52      1 ;    C74 - C87   
    39     59      1 ;    C74 - C94   
    39     60      1 ;    C74 - C95   
    39     62      1 ;    C74 - C97   
    40     46      1 ;    C75 - C81   
    40     51      1 ;    C75 - C86   
    40     56      1 ;    C75 - C91   
    40     64      1 ;    C75 - O14   
    40    234      1 ;    C75 - H140  
    40    235      1 ;    C75 - H141  
    40    236      1 ;    C75 - H142  
    40    241      1 ;    C75 - H200  
    40    245      1 ;    C75 - H202  
    40    246      1 ;    C75 - H203  
    41     43      1 ;    C76 - C78   
    41     58      1 ;    C76 - C93   
    41    232      1 ;    C76 - H138  
    41    233      1 ;    C76 - H139  
    41    242      1 ;    C76 - H201  
    42     49      1 ;    C77 - C84   
    42     55      1 ;    C77 - C90   
    42     56      1 ;    C77 - C91   
    42     58      1 ;    C77 - C93   
    42     63      1 ;    C77 - C98   
    42    242      1 ;    C77 - H201  
    42    246      1 ;    C77 - H203  
    43     44      1 ;    C78 - C79   
    43     47      1 ;    C78 - C82   
    43     54      1 ;    C78 - C89   
    43     59      1 ;    C78 - C94   
    43     60      1 ;    C78 - C95   
    43     61      1 ;    C78 - C96   
    43    217      1 ;    C78 - H123  
    43    218      1 ;    C78 - H124  
    43    230      1 ;    C78 - H136  
    43    231      1 ;    C78 - H137  
    43    237      1 ;    C78 - H143  
    43    238      1 ;    C78 - H144  
    43    250      1 ;    C78 - H152  
    43    251      1 ;    C78 - H153  
    43    252      1 ;    C78 - H154  
    44     56      1 ;    C79 - C91   
    44     63      1 ;    C79 - C98   
    44     65      1 ;    C79 - O15   
    44     66      1 ;    C79 - N2    
    44    232      1 ;    C79 - H138  
    44    233      1 ;    C79 - H139  
    44    242      1 ;    C79 - H201  
    45     50      1 ;    C80 - C85   
    45     55      1 ;    C80 - C90   
    45     64      1 ;    C80 - O14   
    45    214      1 ;    C80 - H120  
    45    215      1 ;    C80 - H121  
    45    216      1 ;    C80 - H122  
    45    241      1 ;    C80 - H200  
    45    245      1 ;    C80 - H202  
    46     48      1 ;    C81 - C83   
    46     53      1 ;    C81 - C88   
    46     54      1 ;    C81 - C89   
    46     57      1 ;    C81 - C92   
    46     60      1 ;    C81 - C95   
    46     62      1 ;    C81 - C97   
    47     49      1 ;    C82 - C84   
    47     65      1 ;    C82 - O15   
    47     66      1 ;    C82 - N2    
    47    225      1 ;    C82 - H131  
    47    226      1 ;    C82 - H132  
    47    242      1 ;    C82 - H201  
    48     50      1 ;    C83 - C85   
    48     51      1 ;    C83 - C86   
    48     56      1 ;    C83 - C91   
    48    223      1 ;    C83 - H129  
    48    224      1 ;    C83 - H130  
    48    245      1 ;    C83 - H202  
    48    246      1 ;    C83 - H203  
    49     53      1 ;    C84 - C88   
    49     54      1 ;    C84 - C89   
    49     59      1 ;    C84 - C94   
    49     60      1 ;    C84 - C95   
    49     61      1 ;    C84 - C96   
    49    250      1 ;    C84 - H152  
    49    251      1 ;    C84 - H153  
    49    252      1 ;    C84 - H154  
    50     57      1 ;    C85 - C92   
    50     59      1 ;    C85 - C94   
    50    253      1 ;    C85 - H209  
    51     54      1 ;    C86 - C89   
    51     59      1 ;    C86 - C94   
    51    221      1 ;    C86 - H127  
    51    222      1 ;    C86 - H128  
    51    239      1 ;    C86 - H145  
    51    240      1 ;    C86 - H146  
    51    253      1 ;    C86 - H209  
    52     55      1 ;    C87 - C90   
    52    214      1 ;    C87 - H120  
    52    215      1 ;    C87 - H121  
    52    216      1 ;    C87 - H122  
    52    223      1 ;    C87 - H129  
    52    224      1 ;    C87 - H130  
    52    227      1 ;    C87 - H133  
    52    228      1 ;    C87 - H134  
    52    229      1 ;    C87 - H135  
    52    245      1 ;    C87 - H202  
    53     56      1 ;    C88 - C91   
    53     63      1 ;    C88 - C98   
    53     65      1 ;    C88 - O15   
    53     66      1 ;    C88 - N2    
    53    225      1 ;    C88 - H131  
    53    226      1 ;    C88 - H132  
    53    232      1 ;    C88 - H138  
    53    233      1 ;    C88 - H139  
    53    372      1 ;    C88 - H72   
    54     55      1 ;    C89 - C90   
    54     63      1 ;    C89 - C98   
    54    245      1 ;    C89 - H202  
    54    246      1 ;    C89 - H203  
    54    247      1 ;    C89 - H149  
    54    248      1 ;    C89 - H150  
    54    249      1 ;    C89 - H151  
    55     60      1 ;    C90 - C95   
    55     62      1 ;    C90 - C97   
    55    221      1 ;    C90 - H127  
    55    222      1 ;    C90 - H128  
    55    230      1 ;    C90 - H136  
    55    231      1 ;    C90 - H137  
    55    239      1 ;    C90 - H145  
    55    240      1 ;    C90 - H146  
    56     57      1 ;    C91 - C92   
    56    221      1 ;    C91 - H127  
    56    222      1 ;    C91 - H128  
    56    230      1 ;    C91 - H136  
    56    231      1 ;    C91 - H137  
    56    237      1 ;    C91 - H143  
    56    238      1 ;    C91 - H144  
    56    250      1 ;    C91 - H152  
    56    251      1 ;    C91 - H153  
    56    252      1 ;    C91 - H154  
    57     64      1 ;    C92 - O14   
    57    214      1 ;    C92 - H120  
    57    215      1 ;    C92 - H121  
    57    216      1 ;    C92 - H122  
    57    223      1 ;    C92 - H129  
    57    224      1 ;    C92 - H130  
    57    227      1 ;    C92 - H133  
    57    228      1 ;    C92 - H134  
    57    229      1 ;    C92 - H135  
    57    234      1 ;    C92 - H140  
    57    235      1 ;    C92 - H141  
    57    236      1 ;    C92 - H142  
    57    241      1 ;    C92 - H200  
    57    243      1 ;    C92 - H147  
    57    244      1 ;    C92 - H148  
    57    246      1 ;    C92 - H203  
    58     62      1 ;    C93 - C97   
    58    100      1 ;    C93 - C1    
    58    217      1 ;    C93 - H123  
    58    218      1 ;    C93 - H124  
    58    219      1 ;    C93 - H125  
    58    220      1 ;    C93 - H126  
    58    237      1 ;    C93 - H143  
    58    238      1 ;    C93 - H144  
    58    373      1 ;    C93 - H73   
    59     63      1 ;    C94 - C98   
    59    223      1 ;    C94 - H129  
    59    224      1 ;    C94 - H130  
    59    234      1 ;    C94 - H140  
    59    235      1 ;    C94 - H141  
    59    236      1 ;    C94 - H142  
    59    243      1 ;    C94 - H147  
    59    244      1 ;    C94 - H148  
    59    245      1 ;    C94 - H202  
    59    247      1 ;    C94 - H149  
    59    248      1 ;    C94 - H150  
    59    249      1 ;    C94 - H151  
    59    372      1 ;    C94 - H72   
    60     63      1 ;    C95 - C98   
    60    243      1 ;    C95 - H147  
    60    244      1 ;    C95 - H148  
    60    246      1 ;    C95 - H203  
    61    101      1 ;    C96 - C2    
    61    225      1 ;    C96 - H131  
    61    226      1 ;    C96 - H132  
    61    232      1 ;    C96 - H138  
    61    233      1 ;    C96 - H139  
    61    242      1 ;    C96 - H201  
    61    301      1 ;    C96 - H1    
    61    302      1 ;    C96 - H2    
    62    225      1 ;    C97 - H131  
    62    226      1 ;    C97 - H132  
    62    242      1 ;    C97 - H201  
    62    243      1 ;    C97 - H147  
    62    244      1 ;    C97 - H148  
    62    246      1 ;    C97 - H203  
    62    247      1 ;    C97 - H149  
    62    248      1 ;    C97 - H150  
    62    249      1 ;    C97 - H151  
    62    372      1 ;    C97 - H72   
    63    237      1 ;    C98 - H143  
    63    238      1 ;    C98 - H144  
    64    239      1 ;    O14 - H145  
    64    240      1 ;    O14 - H146  
    65    100      1 ;    O15 - C1    
    65    373      1 ;    O15 - H73   
    66    102      1 ;     N2 - O1    
    66    303      1 ;     N2 - H3    
    66    304      1 ;     N2 - H4    
    67     80      1 ;    C99 - C112  
    67     86      1 ;    C99 - C118  
    67    257      1 ;    C99 - H158  
    67    258      1 ;    C99 - H159  
    67    259      1 ;    C99 - H160  
    67    263      1 ;    C99 - H164  
    67    264      1 ;    C99 - H165  
    67    265      1 ;    C99 - H166  
    67    266      1 ;    C99 - H167  
    68     80      1 ;   C100 - C112  
    68     86      1 ;   C100 - C118  
    68    254      1 ;   C100 - H155  
    68    255      1 ;   C100 - H156  
    68    256      1 ;   C100 - H157  
    68    263      1 ;   C100 - H164  
    68    264      1 ;   C100 - H165  
    68    265      1 ;   C100 - H166  
    68    266      1 ;   C100 - H167  
    69     72      1 ;   C101 - C104  
    69     83      1 ;   C101 - C115  
    69     88      1 ;   C101 - C120  
    69     97      1 ;   C101 - O16   
    69    274      1 ;   C101 - H174  
    69    275      1 ;   C101 - H175  
    69    276      1 ;   C101 - H176  
    69    288      1 ;   C101 - H205  
    69    292      1 ;   C101 - H207  
    70     75      1 ;   C102 - C107  
    70     77      1 ;   C102 - C109  
    70     80      1 ;   C102 - C112  
    70     94      1 ;   C102 - C126  
    70     95      1 ;   C102 - C127  
    70    254      1 ;   C102 - H155  
    70    255      1 ;   C102 - H156  
    70    256      1 ;   C102 - H157  
    70    257      1 ;   C102 - H158  
    70    258      1 ;   C102 - H159  
    70    259      1 ;   C102 - H160  
    70    265      1 ;   C102 - H166  
    70    266      1 ;   C102 - H167  
    71     77      1 ;   C103 - C109  
    71     86      1 ;   C103 - C118  
    71     94      1 ;   C103 - C126  
    71    254      1 ;   C103 - H155  
    71    255      1 ;   C103 - H156  
    71    256      1 ;   C103 - H157  
    71    257      1 ;   C103 - H158  
    71    258      1 ;   C103 - H159  
    71    259      1 ;   C103 - H160  
    71    263      1 ;   C103 - H164  
    71    264      1 ;   C103 - H165  
    72     73      1 ;   C104 - C105  
    72     78      1 ;   C104 - C110  
    72     81      1 ;   C104 - C113  
    72     85      1 ;   C104 - C117  
    72     92      1 ;   C104 - C124  
    72     93      1 ;   C104 - C125  
    72     95      1 ;   C104 - C127  
    73     79      1 ;   C105 - C111  
    73     84      1 ;   C105 - C116  
    73     89      1 ;   C105 - C121  
    73     97      1 ;   C105 - O16   
    73    281      1 ;   C105 - H181  
    73    282      1 ;   C105 - H182  
    73    283      1 ;   C105 - H183  
    73    288      1 ;   C105 - H205  
    73    292      1 ;   C105 - H207  
    73    293      1 ;   C105 - H208  
    74     76      1 ;   C106 - C108  
    74     91      1 ;   C106 - C123  
    74    279      1 ;   C106 - H179  
    74    280      1 ;   C106 - H180  
    74    289      1 ;   C106 - H206  
    75     82      1 ;   C107 - C114  
    75     88      1 ;   C107 - C120  
    75     89      1 ;   C107 - C121  
    75     91      1 ;   C107 - C123  
    75     96      1 ;   C107 - C128  
    75    289      1 ;   C107 - H206  
    75    293      1 ;   C107 - H208  
    76     77      1 ;   C108 - C109  
    76     80      1 ;   C108 - C112  
    76     87      1 ;   C108 - C119  
    76     92      1 ;   C108 - C124  
    76     93      1 ;   C108 - C125  
    76     94      1 ;   C108 - C126  
    76    263      1 ;   C108 - H164  
    76    264      1 ;   C108 - H165  
    76    277      1 ;   C108 - H177  
    76    278      1 ;   C108 - H178  
    76    284      1 ;   C108 - H184  
    76    285      1 ;   C108 - H185  
    76    297      1 ;   C108 - H193  
    76    298      1 ;   C108 - H194  
    76    299      1 ;   C108 - H195  
    77     89      1 ;   C109 - C121  
    77     96      1 ;   C109 - C128  
    77     98      1 ;   C109 - O17   
    77     99      1 ;   C109 - N3    
    77    279      1 ;   C109 - H179  
    77    280      1 ;   C109 - H180  
    77    289      1 ;   C109 - H206  
    78     83      1 ;   C110 - C115  
    78     88      1 ;   C110 - C120  
    78     97      1 ;   C110 - O16   
    78    260      1 ;   C110 - H161  
    78    261      1 ;   C110 - H162  
    78    262      1 ;   C110 - H163  
    78    288      1 ;   C110 - H205  
    78    292      1 ;   C110 - H207  
    79     81      1 ;   C111 - C113  
    79     86      1 ;   C111 - C118  
    79     87      1 ;   C111 - C119  
    79     90      1 ;   C111 - C122  
    79     93      1 ;   C111 - C125  
    79     95      1 ;   C111 - C127  
    80     82      1 ;   C112 - C114  
    80     98      1 ;   C112 - O17   
    80     99      1 ;   C112 - N3    
    80    272      1 ;   C112 - H172  
    80    273      1 ;   C112 - H173  
    80    289      1 ;   C112 - H206  
    81     83      1 ;   C113 - C115  
    81     84      1 ;   C113 - C116  
    81     89      1 ;   C113 - C121  
    81    269      1 ;   C113 - H170  
    81    270      1 ;   C113 - H171  
    81    292      1 ;   C113 - H207  
    81    293      1 ;   C113 - H208  
    82     86      1 ;   C114 - C118  
    82     87      1 ;   C114 - C119  
    82     92      1 ;   C114 - C124  
    82     93      1 ;   C114 - C125  
    82     94      1 ;   C114 - C126  
    82    297      1 ;   C114 - H193  
    82    298      1 ;   C114 - H194  
    82    299      1 ;   C114 - H195  
    83     90      1 ;   C115 - C122  
    83     92      1 ;   C115 - C124  
    83    300      1 ;   C115 - H210  
    84     87      1 ;   C116 - C119  
    84     92      1 ;   C116 - C124  
    84    267      1 ;   C116 - H168  
    84    268      1 ;   C116 - H169  
    84    286      1 ;   C116 - H186  
    84    287      1 ;   C116 - H187  
    84    300      1 ;   C116 - H210  
    85     88      1 ;   C117 - C120  
    85    260      1 ;   C117 - H161  
    85    261      1 ;   C117 - H162  
    85    262      1 ;   C117 - H163  
    85    269      1 ;   C117 - H170  
    85    270      1 ;   C117 - H171  
    85    274      1 ;   C117 - H174  
    85    275      1 ;   C117 - H175  
    85    276      1 ;   C117 - H176  
    85    292      1 ;   C117 - H207  
    86     89      1 ;   C118 - C121  
    86     96      1 ;   C118 - C128  
    86     98      1 ;   C118 - O17   
    86     99      1 ;   C118 - N3    
    86    271      1 ;   C118 - H204  
    86    272      1 ;   C118 - H172  
    86    273      1 ;   C118 - H173  
    86    279      1 ;   C118 - H179  
    86    280      1 ;   C118 - H180  
    87     88      1 ;   C119 - C120  
    87     96      1 ;   C119 - C128  
    87    292      1 ;   C119 - H207  
    87    293      1 ;   C119 - H208  
    87    294      1 ;   C119 - H190  
    87    295      1 ;   C119 - H191  
    87    296      1 ;   C119 - H192  
    88     93      1 ;   C120 - C125  
    88     95      1 ;   C120 - C127  
    88    267      1 ;   C120 - H168  
    88    268      1 ;   C120 - H169  
    88    277      1 ;   C120 - H177  
    88    278      1 ;   C120 - H178  
    88    286      1 ;   C120 - H186  
    88    287      1 ;   C120 - H187  
    89     90      1 ;   C121 - C122  
    89    267      1 ;   C121 - H168  
    89    268      1 ;   C121 - H169  
    89    277      1 ;   C121 - H177  
    89    278      1 ;   C121 - H178  
    89    284      1 ;   C121 - H184  
    89    285      1 ;   C121 - H185  
    89    297      1 ;   C121 - H193  
    89    298      1 ;   C121 - H194  
    89    299      1 ;   C121 - H195  
    90     97      1 ;   C122 - O16   
    90    260      1 ;   C122 - H161  
    90    261      1 ;   C122 - H162  
    90    262      1 ;   C122 - H163  
    90    269      1 ;   C122 - H170  
    90    270      1 ;   C122 - H171  
    90    274      1 ;   C122 - H174  
    90    275      1 ;   C122 - H175  
    90    276      1 ;   C122 - H176  
    90    281      1 ;   C122 - H181  
    90    282      1 ;   C122 - H182  
    90    283      1 ;   C122 - H183  
    90    288      1 ;   C122 - H205  
    90    290      1 ;   C122 - H188  
    90    291      1 ;   C122 - H189  
    90    293      1 ;   C122 - H208  
    91     95      1 ;   C123 - C127  
    91    141      1 ;   C123 - C27   
    91    263      1 ;   C123 - H164  
    91    264      1 ;   C123 - H165  
    91    265      1 ;   C123 - H166  
    91    266      1 ;   C123 - H167  
    91    284      1 ;   C123 - H184  
    91    285      1 ;   C123 - H185  
    91    348      1 ;   C123 - H48   
    92     96      1 ;   C124 - C128  
    92    269      1 ;   C124 - H170  
    92    270      1 ;   C124 - H171  
    92    271      1 ;   C124 - H204  
    92    281      1 ;   C124 - H181  
    92    282      1 ;   C124 - H182  
    92    283      1 ;   C124 - H183  
    92    290      1 ;   C124 - H188  
    92    291      1 ;   C124 - H189  
    92    292      1 ;   C124 - H207  
    92    294      1 ;   C124 - H190  
    92    295      1 ;   C124 - H191  
    92    296      1 ;   C124 - H192  
    93     96      1 ;   C125 - C128  
    93    290      1 ;   C125 - H188  
    93    291      1 ;   C125 - H189  
    93    293      1 ;   C125 - H208  
    94    142      1 ;   C126 - C28   
    94    272      1 ;   C126 - H172  
    94    273      1 ;   C126 - H173  
    94    279      1 ;   C126 - H179  
    94    280      1 ;   C126 - H180  
    94    289      1 ;   C126 - H206  
    94    349      1 ;   C126 - H49   
    94    350      1 ;   C126 - H50   
    95    271      1 ;   C127 - H204  
    95    272      1 ;   C127 - H172  
    95    273      1 ;   C127 - H173  
    95    289      1 ;   C127 - H206  
    95    290      1 ;   C127 - H188  
    95    291      1 ;   C127 - H189  
    95    293      1 ;   C127 - H208  
    95    294      1 ;   C127 - H190  
    95    295      1 ;   C127 - H191  
    95    296      1 ;   C127 - H192  
    96    284      1 ;   C128 - H184  
    96    285      1 ;   C128 - H185  
    97    286      1 ;    O16 - H186  
    97    287      1 ;    O16 - H187  
    98    141      1 ;    O17 - C27   
    98    348      1 ;    O17 - H48   
    99    143      1 ;     N3 - O9    
    99    351      1 ;     N3 - H51   
    99    352      1 ;     N3 - H52   
   100    103      1 ;     C1 - C3    
   101    104      1 ;     C2 - C4    
   101    305      1 ;     C2 - H5    
   101    306      1 ;     C2 - H6    
   101    373      1 ;     C2 - H73   
   102    105      1 ;     O1 - O2    
   102    301      1 ;     O1 - H1    
   102    302      1 ;     O1 - H2    
   102    307      1 ;     O1 - H7    
   102    308      1 ;     O1 - H8    
   103    106      1 ;     C3 - C5    
   103    303      1 ;     C3 - H3    
   103    304      1 ;     C3 - H4    
   104    107      1 ;     C4 - C6    
   104    309      1 ;     C4 - H9    
   104    310      1 ;     C4 - H10   
   105    108      1 ;     O2 - O3    
   105    305      1 ;     O2 - H5    
   105    306      1 ;     O2 - H6    
   105    311      1 ;     O2 - H11   
   105    312      1 ;     O2 - H12   
   106    109      1 ;     C5 - C7    
   106    307      1 ;     C5 - H7    
   106    308      1 ;     C5 - H8    
   107    110      1 ;     C6 - C8    
   107    313      1 ;     C6 - H13   
   107    314      1 ;     C6 - H14   
   108    111      1 ;     O3 - O4    
   108    309      1 ;     O3 - H9    
   108    310      1 ;     O3 - H10   
   108    315      1 ;     O3 - H15   
   108    316      1 ;     O3 - H16   
   109    112      1 ;     C7 - C9    
   109    311      1 ;     C7 - H11   
   109    312      1 ;     C7 - H12   
   110    113      1 ;     C8 - C10   
   110    317      1 ;     C8 - H17   
   110    318      1 ;     C8 - H18   
   111    114      1 ;     O4 - N4    
   111    313      1 ;     O4 - H13   
   111    314      1 ;     O4 - H14   
   111    319      1 ;     O4 - H19   
   111    320      1 ;     O4 - H20   
   112    115      1 ;     C9 - N5    
   112    118      1 ;     C9 - C12   
   112    315      1 ;     C9 - H15   
   112    316      1 ;     C9 - H16   
   113    116      1 ;    C10 - N6    
   113    117      1 ;    C10 - C11   
   113    321      1 ;    C10 - H21   
   114    119      1 ;     N4 - C13   
   114    317      1 ;     N4 - H17   
   114    318      1 ;     N4 - H18   
   115    119      1 ;     N5 - C13   
   115    319      1 ;     N5 - H19   
   115    320      1 ;     N5 - H20   
   115    321      1 ;     N5 - H21   
   116    120      1 ;     N6 - N7    
   116    321      1 ;     N6 - H21   
   116    322      1 ;     N6 - H22   
   116    323      1 ;     N6 - H23   
   117    140      1 ;    C11 - C26   
   117    160      1 ;    C11 - C39   
   118    120      1 ;    C12 - N7    
   118    319      1 ;    C12 - H19   
   118    320      1 ;    C12 - H20   
   118    322      1 ;    C12 - H22   
   118    323      1 ;    C12 - H23   
   119    138      1 ;    C13 - C24   
   119    158      1 ;    C13 - C37   
   119    321      1 ;    C13 - H21   
   119    346      1 ;    C13 - H46   
   119    347      1 ;    C13 - H47   
   119    370      1 ;    C13 - H70   
   119    371      1 ;    C13 - H71   
   120    137      1 ;     N7 - N10   
   120    139      1 ;     N7 - C25   
   120    157      1 ;     N7 - N13   
   120    159      1 ;     N7 - C38   
   121    124      1 ;    C14 - C16   
   122    125      1 ;    C15 - C17   
   122    324      1 ;    C15 - H24   
   122    329      1 ;    C15 - H29   
   122    330      1 ;    C15 - H30   
   123    126      1 ;     O5 - O6    
   123    325      1 ;     O5 - H25   
   123    326      1 ;     O5 - H26   
   123    331      1 ;     O5 - H31   
   123    332      1 ;     O5 - H32   
   124    127      1 ;    C16 - C18   
   124    327      1 ;    C16 - H27   
   124    328      1 ;    C16 - H28   
   125    128      1 ;    C17 - C19   
   125    333      1 ;    C17 - H33   
   125    334      1 ;    C17 - H34   
   126    129      1 ;     O6 - O7    
   126    329      1 ;     O6 - H29   
   126    330      1 ;     O6 - H30   
   126    335      1 ;     O6 - H35   
   126    336      1 ;     O6 - H36   
   127    130      1 ;    C18 - C20   
   127    331      1 ;    C18 - H31   
   127    332      1 ;    C18 - H32   
   128    131      1 ;    C19 - C21   
   128    337      1 ;    C19 - H37   
   128    338      1 ;    C19 - H38   
   129    132      1 ;     O7 - O8    
   129    333      1 ;     O7 - H33   
   129    334      1 ;     O7 - H34   
   129    339      1 ;     O7 - H39   
   129    340      1 ;     O7 - H40   
   130    133      1 ;    C20 - C22   
   130    335      1 ;    C20 - H35   
   130    336      1 ;    C20 - H36   
   131    134      1 ;    C21 - C23   
   131    341      1 ;    C21 - H41   
   131    342      1 ;    C21 - H42   
   132    135      1 ;     O8 - N8    
   132    337      1 ;     O8 - H37   
   132    338      1 ;     O8 - H38   
   132    343      1 ;     O8 - H43   
   132    344      1 ;     O8 - H44   
   133    136      1 ;    C22 - N9    
   133    139      1 ;    C22 - C25   
   133    339      1 ;    C22 - H39   
   133    340      1 ;    C22 - H40   
   134    137      1 ;    C23 - N10   
   134    138      1 ;    C23 - C24   
   134    345      1 ;    C23 - H45   
   135    140      1 ;     N8 - C26   
   135    341      1 ;     N8 - H41   
   135    342      1 ;     N8 - H42   
   136    140      1 ;     N9 - C26   
   136    343      1 ;     N9 - H43   
   136    344      1 ;     N9 - H44   
   136    345      1 ;     N9 - H45   
   137    345      1 ;    N10 - H45   
   137    346      1 ;    N10 - H46   
   137    347      1 ;    N10 - H47   
   138    160      1 ;    C24 - C39   
   139    343      1 ;    C25 - H43   
   139    344      1 ;    C25 - H44   
   139    346      1 ;    C25 - H46   
   139    347      1 ;    C25 - H47   
   140    158      1 ;    C26 - C37   
   140    322      1 ;    C26 - H22   
   140    323      1 ;    C26 - H23   
   140    345      1 ;    C26 - H45   
   140    370      1 ;    C26 - H70   
   140    371      1 ;    C26 - H71   
   141    144      1 ;    C27 - C29   
   142    145      1 ;    C28 - C30   
   142    348      1 ;    C28 - H48   
   142    353      1 ;    C28 - H53   
   142    354      1 ;    C28 - H54   
   143    146      1 ;     O9 - O10   
   143    349      1 ;     O9 - H49   
   143    350      1 ;     O9 - H50   
   143    355      1 ;     O9 - H55   
   143    356      1 ;     O9 - H56   
   144    147      1 ;    C29 - C31   
   144    351      1 ;    C29 - H51   
   144    352      1 ;    C29 - H52   
   145    148      1 ;    C30 - C32   
   145    357      1 ;    C30 - H57   
   145    358      1 ;    C30 - H58   
   146    149      1 ;    O10 - O11   
   146    353      1 ;    O10 - H53   
   146    354      1 ;    O10 - H54   
   146    359      1 ;    O10 - H59   
   146    360      1 ;    O10 - H60   
   147    150      1 ;    C31 - C33   
   147    355      1 ;    C31 - H55   
   147    356      1 ;    C31 - H56   
   148    151      1 ;    C32 - C34   
   148    361      1 ;    C32 - H61   
   148    362      1 ;    C32 - H62   
   149    152      1 ;    O11 - O12   
   149    357      1 ;    O11 - H57   
   149    358      1 ;    O11 - H58   
   149    363      1 ;    O11 - H63   
   149    364      1 ;    O11 - H64   
   150    153      1 ;    C33 - C35   
   150    359      1 ;    C33 - H59   
   150    360      1 ;    C33 - H60   
   151    154      1 ;    C34 - C36   
   151    365      1 ;    C34 - H65   
   151    366      1 ;    C34 - H66   
   152    155      1 ;    O12 - N11   
   152    361      1 ;    O12 - H61   
   152    362      1 ;    O12 - H62   
   152    367      1 ;    O12 - H67   
   152    368      1 ;    O12 - H68   
   153    156      1 ;    C35 - N12   
   153    159      1 ;    C35 - C38   
   153    363      1 ;    C35 - H63   
   153    364      1 ;    C35 - H64   
   154    157      1 ;    C36 - N13   
   154    158      1 ;    C36 - C37   
   154    369      1 ;    C36 - H69   
   155    160      1 ;    N11 - C39   
   155    365      1 ;    N11 - H65   
   155    366      1 ;    N11 - H66   
   156    160      1 ;    N12 - C39   
   156    367      1 ;    N12 - H67   
   156    368      1 ;    N12 - H68   
   156    369      1 ;    N12 - H69   
   157    369      1 ;    N13 - H69   
   157    370      1 ;    N13 - H70   
   157    371      1 ;    N13 - H71   
   159    367      1 ;    C38 - H67   
   159    368      1 ;    C38 - H68   
   159    370      1 ;    C38 - H70   
   159    371      1 ;    C38 - H71   
   160    322      1 ;    C39 - H22   
   160    323      1 ;    C39 - H23   
   160    346      1 ;    C39 - H46   
   160    347      1 ;    C39 - H47   
   160    369      1 ;    C39 - H69   
   161      2      1 ;   HHXT - C40   
   161      4      1 ;   HHXT - C42   
   161      5      1 ;   HHXT - C43   
   162      2      1 ;    H74 - C40   
   162      4      1 ;    H74 - C42   
   162      5      1 ;    H74 - C43   
   163      2      1 ;    H75 - C40   
   163      4      1 ;    H75 - C42   
   163      5      1 ;    H75 - C43   
   170    196      1 ;    H82 - H197  
   171    196      1 ;    H83 - H197  
   172    186      1 ;    H84 - H97   
   172    187      1 ;    H84 - H98   
   173    186      1 ;    H85 - H97   
   173    187      1 ;    H85 - H98   
   174    197      1 ;    H86 - H106  
   174    198      1 ;    H86 - H107  
   174    199      1 ;    H86 - H198  
   175    197      1 ;    H87 - H106  
   175    198      1 ;    H87 - H107  
   175    199      1 ;    H87 - H198  
   176    193      1 ;    H88 - H104  
   176    194      1 ;    H88 - H105  
   177    193      1 ;    H89 - H104  
   177    194      1 ;    H89 - H105  
   178    184      1 ;    HXT - H95   
   178    185      1 ;    HXT - H96   
   179    191      1 ;    H90 - H102  
   179    192      1 ;    H90 - H103  
   180    191      1 ;    H91 - H102  
   180    192      1 ;    H91 - H103  
   184    200      1 ;    H95 - H199  
   185    200      1 ;    H96 - H199  
   193    195      1 ;   H104 - H196  
   194    195      1 ;   H105 - H196  
   195    207      1 ;   H196 - HO    
   217    242      1 ;   H123 - H201  
   218    242      1 ;   H124 - H201  
   219    232      1 ;   H125 - H138  
   219    233      1 ;   H125 - H139  
   220    232      1 ;   H126 - H138  
   220    233      1 ;   H126 - H139  
   221    243      1 ;   H127 - H147  
   221    244      1 ;   H127 - H148  
   221    245      1 ;   H127 - H202  
   222    243      1 ;   H128 - H147  
   222    244      1 ;   H128 - H148  
   222    245      1 ;   H128 - H202  
   223    239      1 ;   H129 - H145  
   223    240      1 ;   H129 - H146  
   224    239      1 ;   H130 - H145  
   224    240      1 ;   H130 - H146  
   225    237      1 ;   H131 - H143  
   225    238      1 ;   H131 - H144  
   226    237      1 ;   H132 - H143  
   226    238      1 ;   H132 - H144  
   230    246      1 ;   H136 - H203  
   230    372      1 ;   H136 - H72   
   231    246      1 ;   H137 - H203  
   231    372      1 ;   H137 - H72   
   239    241      1 ;   H145 - H200  
   240    241      1 ;   H146 - H200  
   241    253      1 ;   H200 - H209  
   263    289      1 ;   H164 - H206  
   264    289      1 ;   H165 - H206  
   265    279      1 ;   H166 - H179  
   265    280      1 ;   H166 - H180  
   266    279      1 ;   H167 - H179  
   266    280      1 ;   H167 - H180  
   267    290      1 ;   H168 - H188  
   267    291      1 ;   H168 - H189  
   267    292      1 ;   H168 - H207  
   268    290      1 ;   H169 - H188  
   268    291      1 ;   H169 - H189  
   268    292      1 ;   H169 - H207  
   269    286      1 ;   H170 - H186  
   269    287      1 ;   H170 - H187  
   270    286      1 ;   H171 - H186  
   270    287      1 ;   H171 - H187  
   271    277      1 ;   H204 - H177  
   271    278      1 ;   H204 - H178  
   272    284      1 ;   H172 - H184  
   272    285      1 ;   H172 - H185  
   273    284      1 ;   H173 - H184  
   273    285      1 ;   H173 - H185  
   277    293      1 ;   H177 - H208  
   278    293      1 ;   H178 - H208  
   286    288      1 ;   H186 - H205  
   287    288      1 ;   H187 - H205  
   288    300      1 ;   H205 - H210  
   301    303      1 ;     H1 - H3    
   301    304      1 ;     H1 - H4    
   301    373      1 ;     H1 - H73   
   302    303      1 ;     H2 - H3    
   302    304      1 ;     H2 - H4    
   302    373      1 ;     H2 - H73   
   305    307      1 ;     H5 - H7    
   305    308      1 ;     H5 - H8    
   306    307      1 ;     H6 - H7    
   306    308      1 ;     H6 - H8    
   309    311      1 ;     H9 - H11   
   309    312      1 ;     H9 - H12   
   310    311      1 ;    H10 - H11   
   310    312      1 ;    H10 - H12   
   313    315      1 ;    H13 - H15   
   313    316      1 ;    H13 - H16   
   314    315      1 ;    H14 - H15   
   314    316      1 ;    H14 - H16   
   317    319      1 ;    H17 - H19   
   317    320      1 ;    H17 - H20   
   318    319      1 ;    H18 - H19   
   318    320      1 ;    H18 - H20   
   324    325      1 ;    H24 - H25   
   324    326      1 ;    H24 - H26   
   325    327      1 ;    H25 - H27   
   325    328      1 ;    H25 - H28   
   326    327      1 ;    H26 - H27   
   326    328      1 ;    H26 - H28   
   329    331      1 ;    H29 - H31   
   329    332      1 ;    H29 - H32   
   330    331      1 ;    H30 - H31   
   330    332      1 ;    H30 - H32   
   333    335      1 ;    H33 - H35   
   333    336      1 ;    H33 - H36   
   334    335      1 ;    H34 - H35   
   334    336      1 ;    H34 - H36   
   337    339      1 ;    H37 - H39   
   337    340      1 ;    H37 - H40   
   338    339      1 ;    H38 - H39   
   338    340      1 ;    H38 - H40   
   341    343      1 ;    H41 - H43   
   341    344      1 ;    H41 - H44   
   342    343      1 ;    H42 - H43   
   342    344      1 ;    H42 - H44   
   348    349      1 ;    H48 - H49   
   348    350      1 ;    H48 - H50   
   349    351      1 ;    H49 - H51   
   349    352      1 ;    H49 - H52   
   350    351      1 ;    H50 - H51   
   350    352      1 ;    H50 - H52   
   353    355      1 ;    H53 - H55   
   353    356      1 ;    H53 - H56   
   354    355      1 ;    H54 - H55   
   354    356      1 ;    H54 - H56   
   357    359      1 ;    H57 - H59   
   357    360      1 ;    H57 - H60   
   358    359      1 ;    H58 - H59   
   358    360      1 ;    H58 - H60   
   361    363      1 ;    H61 - H63   
   361    364      1 ;    H61 - H64   
   362    363      1 ;    H62 - H63   
   362    364      1 ;    H62 - H64   
   365    367      1 ;    H65 - H67   
   365    368      1 ;    H65 - H68   
   366    367      1 ;    H66 - H67   
   366    368      1 ;    H66 - H68   

[ angles ]
;   ai     aj     ak    funct   theta         cth
     1      8      2      1    1.1151e+02    5.2635e+02 ;      C - C46    - C40   
     1      8      4      1    1.1151e+02    5.2635e+02 ;      C - C46    - C42   
     1      8      5      1    1.1151e+02    5.2635e+02 ;      C - C46    - C43   
     2      8      4      1    1.1151e+02    5.2635e+02 ;    C40 - C46    - C42   
     2      8      5      1    1.1151e+02    5.2635e+02 ;    C40 - C46    - C43   
     3     18     12      1    1.1151e+02    5.2635e+02 ;    C41 - C56    - C50   
     3     18     19      1    1.1151e+02    5.2635e+02 ;    C41 - C56    - C57   
     3     18     24      1    1.1151e+02    5.2635e+02 ;    C41 - C56    - C62   
     4      8      5      1    1.1151e+02    5.2635e+02 ;    C42 - C46    - C43   
     4     20     10      1    1.1156e+02    5.3053e+02 ;    C42 - C58    - C48   
     4     20     25      1    1.1151e+02    5.2635e+02 ;    C42 - C58    - C63   
     4     20    196      1    1.0980e+02    3.8744e+02 ;    C42 - C58    - H197  
     5     14     25      1    1.1151e+02    5.2635e+02 ;    C43 - C52    - C63   
     5     14    186      1    1.0980e+02    3.8744e+02 ;    C43 - C52    - H97   
     5     14    187      1    1.0980e+02    3.8744e+02 ;    C43 - C52    - H98   
     6     21     23      1    1.1151e+02    5.2635e+02 ;    C44 - C59    - C61   
     6     21    197      1    1.0980e+02    3.8744e+02 ;    C44 - C59    - H106  
     6     21    198      1    1.0980e+02    3.8744e+02 ;    C44 - C59    - H107  
     6     24     18      1    1.1151e+02    5.2635e+02 ;    C44 - C62    - C56   
     6     24     22      1    1.1151e+02    5.2635e+02 ;    C44 - C62    - C60   
     6     24    199      1    1.0980e+02    3.8744e+02 ;    C44 - C62    - H198  
     7     17     19      1    1.1151e+02    5.2635e+02 ;    C45 - C55    - C57   
     7     17    193      1    1.0980e+02    3.8744e+02 ;    C45 - C55    - H104  
     7     17    194      1    1.0980e+02    3.8744e+02 ;    C45 - C55    - H105  
     7     22     15      1    1.1151e+02    5.2635e+02 ;    C45 - C60    - C53   
     7     22     24      1    1.1151e+02    5.2635e+02 ;    C45 - C60    - C62   
     7     22     26      1    1.1151e+02    5.2635e+02 ;    C45 - C60    - C64   
     8      1    161      1    1.0980e+02    3.8744e+02 ;    C46 - C      - HHXT  
     8      1    162      1    1.0980e+02    3.8744e+02 ;    C46 - C      - H74   
     8      1    163      1    1.0980e+02    3.8744e+02 ;    C46 - C      - H75   
     8      2    164      1    1.0980e+02    3.8744e+02 ;    C46 - C40    - H76   
     8      2    165      1    1.0980e+02    3.8744e+02 ;    C46 - C40    - H77   
     8      2    166      1    1.0980e+02    3.8744e+02 ;    C46 - C40    - H78   
     8      4     20      1    1.1151e+02    5.2635e+02 ;    C46 - C42    - C58   
     8      4    170      1    1.0980e+02    3.8744e+02 ;    C46 - C42    - H82   
     8      4    171      1    1.0980e+02    3.8744e+02 ;    C46 - C42    - H83   
     8      5     14      1    1.1151e+02    5.2635e+02 ;    C46 - C43    - C52   
     8      5    172      1    1.0980e+02    3.8744e+02 ;    C46 - C43    - H84   
     8      5    173      1    1.0980e+02    3.8744e+02 ;    C46 - C43    - H85   
     9     10     20      1    1.2363e+02    5.3639e+02 ;    C47 - C48    - C58   
     9     10     29      1    1.2363e+02    5.3639e+02 ;    C47 - C48    - C67   
     9     13     26      1    1.1156e+02    5.3053e+02 ;    C47 - C51    - C64   
     9     13    184      1    1.1036e+02    3.9330e+02 ;    C47 - C51    - H95   
     9     13    185      1    1.1036e+02    3.9330e+02 ;    C47 - C51    - H96   
    10      9     13      1    1.2363e+02    5.3639e+02 ;    C48 - C47    - C51   
    10      9    178      1    1.2043e+02    4.1756e+02 ;    C48 - C47    - HXT   
    10     20     25      1    1.1156e+02    5.3053e+02 ;    C48 - C58    - C63   
    10     20    196      1    1.1036e+02    3.9330e+02 ;    C48 - C58    - H197  
    10     29     16      1    1.1156e+02    5.3053e+02 ;    C48 - C67    - C54   
    10     29     23      1    1.1156e+02    5.3053e+02 ;    C48 - C67    - C61   
    10     29     30      1    1.1156e+02    5.3053e+02 ;    C48 - C67    - C68   
    11     16     29      1    1.1151e+02    5.2635e+02 ;    C49 - C54    - C67   
    11     16    191      1    1.0980e+02    3.8744e+02 ;    C49 - C54    - H102  
    11     16    192      1    1.0980e+02    3.8744e+02 ;    C49 - C54    - H103  
    11     25     14      1    1.1151e+02    5.2635e+02 ;    C49 - C63    - C52   
    11     25     20      1    1.1151e+02    5.2635e+02 ;    C49 - C63    - C58   
    11     25     28      1    1.1104e+02    5.2969e+02 ;    C49 - C63    - C66   
    12     18     19      1    1.1151e+02    5.2635e+02 ;    C50 - C56    - C57   
    12     18     24      1    1.1151e+02    5.2635e+02 ;    C50 - C56    - C62   
    13      9    178      1    1.1568e+02    3.8409e+02 ;    C51 - C47    - HXT   
    13     26     22      1    1.1151e+02    5.2635e+02 ;    C51 - C64    - C60   
    13     26     23      1    1.1151e+02    5.2635e+02 ;    C51 - C64    - C61   
    13     26    200      1    1.0980e+02    3.8744e+02 ;    C51 - C64    - H199  
    14      5    172      1    1.0980e+02    3.8744e+02 ;    C52 - C43    - H84   
    14      5    173      1    1.0980e+02    3.8744e+02 ;    C52 - C43    - H85   
    14     25     20      1    1.1151e+02    5.2635e+02 ;    C52 - C63    - C58   
    14     25     28      1    1.1104e+02    5.2969e+02 ;    C52 - C63    - C66   
    15     22     24      1    1.1151e+02    5.2635e+02 ;    C53 - C60    - C62   
    15     22     26      1    1.1151e+02    5.2635e+02 ;    C53 - C60    - C64   
    16     11     25      1    1.1151e+02    5.2635e+02 ;    C54 - C49    - C63   
    16     11    179      1    1.0980e+02    3.8744e+02 ;    C54 - C49    - H90   
    16     11    180      1    1.0980e+02    3.8744e+02 ;    C54 - C49    - H91   
    16     29     23      1    1.1151e+02    5.2635e+02 ;    C54 - C67    - C61   
    16     29     30      1    1.1151e+02    5.2635e+02 ;    C54 - C67    - C68   
    17      7     22      1    1.1151e+02    5.2635e+02 ;    C55 - C45    - C60   
    17      7    176      1    1.0980e+02    3.8744e+02 ;    C55 - C45    - H88   
    17      7    177      1    1.0980e+02    3.8744e+02 ;    C55 - C45    - H89   
    17     19     18      1    1.1151e+02    5.2635e+02 ;    C55 - C57    - C56   
    17     19     31      1    1.1019e+02    5.6484e+02 ;    C55 - C57    - O     
    17     19    195      1    1.0956e+02    3.8828e+02 ;    C55 - C57    - H196  
    18      3    167      1    1.0980e+02    3.8744e+02 ;    C56 - C41    - H79   
    18      3    168      1    1.0980e+02    3.8744e+02 ;    C56 - C41    - H80   
    18      3    169      1    1.0980e+02    3.8744e+02 ;    C56 - C41    - H81   
    18     12    181      1    1.0980e+02    3.8744e+02 ;    C56 - C50    - H92   
    18     12    182      1    1.0980e+02    3.8744e+02 ;    C56 - C50    - H93   
    18     12    183      1    1.0980e+02    3.8744e+02 ;    C56 - C50    - H94   
    18     19     31      1    1.1019e+02    5.6484e+02 ;    C56 - C57    - O     
    18     19    195      1    1.0956e+02    3.8828e+02 ;    C56 - C57    - H196  
    18     24     22      1    1.1151e+02    5.2635e+02 ;    C56 - C62    - C60   
    18     24    199      1    1.0980e+02    3.8744e+02 ;    C56 - C62    - H198  
    19     17    193      1    1.0980e+02    3.8744e+02 ;    C57 - C55    - H104  
    19     17    194      1    1.0980e+02    3.8744e+02 ;    C57 - C55    - H105  
    19     18     24      1    1.1151e+02    5.2635e+02 ;    C57 - C56    - C62   
    19     31    207      1    1.0726e+02    3.9664e+02 ;    C57 - O      - HO    
    20      4    170      1    1.0980e+02    3.8744e+02 ;    C58 - C42    - H82   
    20      4    171      1    1.0980e+02    3.8744e+02 ;    C58 - C42    - H83   
    20     10     29      1    1.1565e+02    5.2635e+02 ;    C58 - C48    - C67   
    20     25     28      1    1.1104e+02    5.2969e+02 ;    C58 - C63    - C66   
    21      6     24      1    1.1151e+02    5.2635e+02 ;    C59 - C44    - C62   
    21      6    174      1    1.0980e+02    3.8744e+02 ;    C59 - C44    - H86   
    21      6    175      1    1.0980e+02    3.8744e+02 ;    C59 - C44    - H87   
    21     23     26      1    1.1151e+02    5.2635e+02 ;    C59 - C61    - C64   
    21     23     27      1    1.1151e+02    5.2635e+02 ;    C59 - C61    - C65   
    21     23     29      1    1.1151e+02    5.2635e+02 ;    C59 - C61    - C67   
    22      7    176      1    1.0980e+02    3.8744e+02 ;    C60 - C45    - H88   
    22      7    177      1    1.0980e+02    3.8744e+02 ;    C60 - C45    - H89   
    22     15    188      1    1.0980e+02    3.8744e+02 ;    C60 - C53    - H99   
    22     15    189      1    1.0980e+02    3.8744e+02 ;    C60 - C53    - H100  
    22     15    190      1    1.0980e+02    3.8744e+02 ;    C60 - C53    - H101  
    22     24    199      1    1.0980e+02    3.8744e+02 ;    C60 - C62    - H198  
    22     26     23      1    1.1151e+02    5.2635e+02 ;    C60 - C64    - C61   
    22     26    200      1    1.0980e+02    3.8744e+02 ;    C60 - C64    - H199  
    23     21    197      1    1.0980e+02    3.8744e+02 ;    C61 - C59    - H106  
    23     21    198      1    1.0980e+02    3.8744e+02 ;    C61 - C59    - H107  
    23     26    200      1    1.0980e+02    3.8744e+02 ;    C61 - C64    - H199  
    23     27    201      1    1.0980e+02    3.8744e+02 ;    C61 - C65    - H108  
    23     27    202      1    1.0980e+02    3.8744e+02 ;    C61 - C65    - H109  
    23     27    203      1    1.0980e+02    3.8744e+02 ;    C61 - C65    - H110  
    23     29     30      1    1.1151e+02    5.2635e+02 ;    C61 - C67    - C68   
    24      6    174      1    1.0980e+02    3.8744e+02 ;    C62 - C44    - H86   
    24      6    175      1    1.0980e+02    3.8744e+02 ;    C62 - C44    - H87   
    24     22     26      1    1.1151e+02    5.2635e+02 ;    C62 - C60    - C64   
    25     11    179      1    1.0980e+02    3.8744e+02 ;    C63 - C49    - H90   
    25     11    180      1    1.0980e+02    3.8744e+02 ;    C63 - C49    - H91   
    25     14    186      1    1.0980e+02    3.8744e+02 ;    C63 - C52    - H97   
    25     14    187      1    1.0980e+02    3.8744e+02 ;    C63 - C52    - H98   
    25     20    196      1    1.0980e+02    3.8744e+02 ;    C63 - C58    - H197  
    25     28     32      1    1.2320e+02    5.6400e+02 ;    C63 - C66    - O13   
    25     28     33      1    1.1518e+02    5.5898e+02 ;    C63 - C66    - N1    
    26     13    184      1    1.0980e+02    3.8744e+02 ;    C64 - C51    - H95   
    26     13    185      1    1.0980e+02    3.8744e+02 ;    C64 - C51    - H96   
    26     23     27      1    1.1151e+02    5.2635e+02 ;    C64 - C61    - C65   
    26     23     29      1    1.1151e+02    5.2635e+02 ;    C64 - C61    - C67   
    27     23     29      1    1.1151e+02    5.2635e+02 ;    C65 - C61    - C67   
    28     33    121      1    1.2069e+02    5.3053e+02 ;    C66 - N1     - C14   
    28     33    324      1    1.1755e+02    4.0417e+02 ;    C66 - N1     - H24   
    29     16    191      1    1.0980e+02    3.8744e+02 ;    C67 - C54    - H102  
    29     16    192      1    1.0980e+02    3.8744e+02 ;    C67 - C54    - H103  
    29     30    204      1    1.0980e+02    3.8744e+02 ;    C67 - C68    - H111  
    29     30    205      1    1.0980e+02    3.8744e+02 ;    C67 - C68    - H112  
    29     30    206      1    1.0980e+02    3.8744e+02 ;    C67 - C68    - H113  
    31     19    195      1    1.1026e+02    4.2593e+02 ;      O - C57    - H196  
    32     28     33      1    1.2305e+02    6.2091e+02 ;    O13 - C66    - N1    
    33    121    122      1    1.1161e+02    5.5145e+02 ;     N1 - C14    - C15   
    33    121    325      1    1.0888e+02    4.1673e+02 ;     N1 - C14    - H25   
    33    121    326      1    1.0888e+02    4.1673e+02 ;     N1 - C14    - H26   
    34     41     35      1    1.1151e+02    5.2635e+02 ;    C69 - C76    - C70   
    34     41     37      1    1.1151e+02    5.2635e+02 ;    C69 - C76    - C72   
    34     41     38      1    1.1151e+02    5.2635e+02 ;    C69 - C76    - C73   
    35     41     37      1    1.1151e+02    5.2635e+02 ;    C70 - C76    - C72   
    35     41     38      1    1.1151e+02    5.2635e+02 ;    C70 - C76    - C73   
    36     51     45      1    1.1151e+02    5.2635e+02 ;    C71 - C86    - C80   
    36     51     52      1    1.1151e+02    5.2635e+02 ;    C71 - C86    - C87   
    36     51     57      1    1.1151e+02    5.2635e+02 ;    C71 - C86    - C92   
    37     41     38      1    1.1151e+02    5.2635e+02 ;    C72 - C76    - C73   
    37     53     43      1    1.1156e+02    5.3053e+02 ;    C72 - C88    - C78   
    37     53     58      1    1.1151e+02    5.2635e+02 ;    C72 - C88    - C93   
    37     53    242      1    1.0980e+02    3.8744e+02 ;    C72 - C88    - H201  
    38     47     58      1    1.1151e+02    5.2635e+02 ;    C73 - C82    - C93   
    38     47    232      1    1.0980e+02    3.8744e+02 ;    C73 - C82    - H138  
    38     47    233      1    1.0980e+02    3.8744e+02 ;    C73 - C82    - H139  
    39     54     56      1    1.1151e+02    5.2635e+02 ;    C74 - C89    - C91   
    39     54    243      1    1.0980e+02    3.8744e+02 ;    C74 - C89    - H147  
    39     54    244      1    1.0980e+02    3.8744e+02 ;    C74 - C89    - H148  
    39     57     51      1    1.1151e+02    5.2635e+02 ;    C74 - C92    - C86   
    39     57     55      1    1.1151e+02    5.2635e+02 ;    C74 - C92    - C90   
    39     57    245      1    1.0980e+02    3.8744e+02 ;    C74 - C92    - H202  
    40     50     52      1    1.1151e+02    5.2635e+02 ;    C75 - C85    - C87   
    40     50    239      1    1.0980e+02    3.8744e+02 ;    C75 - C85    - H145  
    40     50    240      1    1.0980e+02    3.8744e+02 ;    C75 - C85    - H146  
    40     55     48      1    1.1151e+02    5.2635e+02 ;    C75 - C90    - C83   
    40     55     57      1    1.1151e+02    5.2635e+02 ;    C75 - C90    - C92   
    40     55     59      1    1.1151e+02    5.2635e+02 ;    C75 - C90    - C94   
    41     34    208      1    1.0980e+02    3.8744e+02 ;    C76 - C69    - H114  
    41     34    209      1    1.0980e+02    3.8744e+02 ;    C76 - C69    - H115  
    41     34    210      1    1.0980e+02    3.8744e+02 ;    C76 - C69    - H116  
    41     35    211      1    1.0980e+02    3.8744e+02 ;    C76 - C70    - H117  
    41     35    212      1    1.0980e+02    3.8744e+02 ;    C76 - C70    - H118  
    41     35    213      1    1.0980e+02    3.8744e+02 ;    C76 - C70    - H119  
    41     37     53      1    1.1151e+02    5.2635e+02 ;    C76 - C72    - C88   
    41     37    217      1    1.0980e+02    3.8744e+02 ;    C76 - C72    - H123  
    41     37    218      1    1.0980e+02    3.8744e+02 ;    C76 - C72    - H124  
    41     38     47      1    1.1151e+02    5.2635e+02 ;    C76 - C73    - C82   
    41     38    219      1    1.0980e+02    3.8744e+02 ;    C76 - C73    - H125  
    41     38    220      1    1.0980e+02    3.8744e+02 ;    C76 - C73    - H126  
    42     43     53      1    1.2363e+02    5.3639e+02 ;    C77 - C78    - C88   
    42     43     62      1    1.2363e+02    5.3639e+02 ;    C77 - C78    - C97   
    42     46     59      1    1.1156e+02    5.3053e+02 ;    C77 - C81    - C94   
    42     46    230      1    1.1036e+02    3.9330e+02 ;    C77 - C81    - H136  
    42     46    231      1    1.1036e+02    3.9330e+02 ;    C77 - C81    - H137  
    43     42     46      1    1.2363e+02    5.3639e+02 ;    C78 - C77    - C81   
    43     42    372      1    1.2043e+02    4.1756e+02 ;    C78 - C77    - H72   
    43     53     58      1    1.1156e+02    5.3053e+02 ;    C78 - C88    - C93   
    43     53    242      1    1.1036e+02    3.9330e+02 ;    C78 - C88    - H201  
    43     62     49      1    1.1156e+02    5.3053e+02 ;    C78 - C97    - C84   
    43     62     56      1    1.1156e+02    5.3053e+02 ;    C78 - C97    - C91   
    43     62     63      1    1.1156e+02    5.3053e+02 ;    C78 - C97    - C98   
    44     49     62      1    1.1151e+02    5.2635e+02 ;    C79 - C84    - C97   
    44     49    237      1    1.0980e+02    3.8744e+02 ;    C79 - C84    - H143  
    44     49    238      1    1.0980e+02    3.8744e+02 ;    C79 - C84    - H144  
    44     58     47      1    1.1151e+02    5.2635e+02 ;    C79 - C93    - C82   
    44     58     53      1    1.1151e+02    5.2635e+02 ;    C79 - C93    - C88   
    44     58     61      1    1.1104e+02    5.2969e+02 ;    C79 - C93    - C96   
    45     51     52      1    1.1151e+02    5.2635e+02 ;    C80 - C86    - C87   
    45     51     57      1    1.1151e+02    5.2635e+02 ;    C80 - C86    - C92   
    46     42    372      1    1.1568e+02    3.8409e+02 ;    C81 - C77    - H72   
    46     59     55      1    1.1151e+02    5.2635e+02 ;    C81 - C94    - C90   
    46     59     56      1    1.1151e+02    5.2635e+02 ;    C81 - C94    - C91   
    46     59    246      1    1.0980e+02    3.8744e+02 ;    C81 - C94    - H203  
    47     38    219      1    1.0980e+02    3.8744e+02 ;    C82 - C73    - H125  
    47     38    220      1    1.0980e+02    3.8744e+02 ;    C82 - C73    - H126  
    47     58     53      1    1.1151e+02    5.2635e+02 ;    C82 - C93    - C88   
    47     58     61      1    1.1104e+02    5.2969e+02 ;    C82 - C93    - C96   
    48     55     57      1    1.1151e+02    5.2635e+02 ;    C83 - C90    - C92   
    48     55     59      1    1.1151e+02    5.2635e+02 ;    C83 - C90    - C94   
    49     44     58      1    1.1151e+02    5.2635e+02 ;    C84 - C79    - C93   
    49     44    225      1    1.0980e+02    3.8744e+02 ;    C84 - C79    - H131  
    49     44    226      1    1.0980e+02    3.8744e+02 ;    C84 - C79    - H132  
    49     62     56      1    1.1151e+02    5.2635e+02 ;    C84 - C97    - C91   
    49     62     63      1    1.1151e+02    5.2635e+02 ;    C84 - C97    - C98   
    50     40     55      1    1.1151e+02    5.2635e+02 ;    C85 - C75    - C90   
    50     40    223      1    1.0980e+02    3.8744e+02 ;    C85 - C75    - H129  
    50     40    224      1    1.0980e+02    3.8744e+02 ;    C85 - C75    - H130  
    50     52     51      1    1.1151e+02    5.2635e+02 ;    C85 - C87    - C86   
    50     52     64      1    1.1019e+02    5.6484e+02 ;    C85 - C87    - O14   
    50     52    241      1    1.0956e+02    3.8828e+02 ;    C85 - C87    - H200  
    51     36    214      1    1.0980e+02    3.8744e+02 ;    C86 - C71    - H120  
    51     36    215      1    1.0980e+02    3.8744e+02 ;    C86 - C71    - H121  
    51     36    216      1    1.0980e+02    3.8744e+02 ;    C86 - C71    - H122  
    51     45    227      1    1.0980e+02    3.8744e+02 ;    C86 - C80    - H133  
    51     45    228      1    1.0980e+02    3.8744e+02 ;    C86 - C80    - H134  
    51     45    229      1    1.0980e+02    3.8744e+02 ;    C86 - C80    - H135  
    51     52     64      1    1.1019e+02    5.6484e+02 ;    C86 - C87    - O14   
    51     52    241      1    1.0956e+02    3.8828e+02 ;    C86 - C87    - H200  
    51     57     55      1    1.1151e+02    5.2635e+02 ;    C86 - C92    - C90   
    51     57    245      1    1.0980e+02    3.8744e+02 ;    C86 - C92    - H202  
    52     50    239      1    1.0980e+02    3.8744e+02 ;    C87 - C85    - H145  
    52     50    240      1    1.0980e+02    3.8744e+02 ;    C87 - C85    - H146  
    52     51     57      1    1.1151e+02    5.2635e+02 ;    C87 - C86    - C92   
    52     64    253      1    1.0726e+02    3.9664e+02 ;    C87 - O14    - H209  
    53     37    217      1    1.0980e+02    3.8744e+02 ;    C88 - C72    - H123  
    53     37    218      1    1.0980e+02    3.8744e+02 ;    C88 - C72    - H124  
    53     43     62      1    1.1565e+02    5.2635e+02 ;    C88 - C78    - C97   
    53     58     61      1    1.1104e+02    5.2969e+02 ;    C88 - C93    - C96   
    54     39     57      1    1.1151e+02    5.2635e+02 ;    C89 - C74    - C92   
    54     39    221      1    1.0980e+02    3.8744e+02 ;    C89 - C74    - H127  
    54     39    222      1    1.0980e+02    3.8744e+02 ;    C89 - C74    - H128  
    54     56     59      1    1.1151e+02    5.2635e+02 ;    C89 - C91    - C94   
    54     56     60      1    1.1151e+02    5.2635e+02 ;    C89 - C91    - C95   
    54     56     62      1    1.1151e+02    5.2635e+02 ;    C89 - C91    - C97   
    55     40    223      1    1.0980e+02    3.8744e+02 ;    C90 - C75    - H129  
    55     40    224      1    1.0980e+02    3.8744e+02 ;    C90 - C75    - H130  
    55     48    234      1    1.0980e+02    3.8744e+02 ;    C90 - C83    - H140  
    55     48    235      1    1.0980e+02    3.8744e+02 ;    C90 - C83    - H141  
    55     48    236      1    1.0980e+02    3.8744e+02 ;    C90 - C83    - H142  
    55     57    245      1    1.0980e+02    3.8744e+02 ;    C90 - C92    - H202  
    55     59     56      1    1.1151e+02    5.2635e+02 ;    C90 - C94    - C91   
    55     59    246      1    1.0980e+02    3.8744e+02 ;    C90 - C94    - H203  
    56     54    243      1    1.0980e+02    3.8744e+02 ;    C91 - C89    - H147  
    56     54    244      1    1.0980e+02    3.8744e+02 ;    C91 - C89    - H148  
    56     59    246      1    1.0980e+02    3.8744e+02 ;    C91 - C94    - H203  
    56     60    247      1    1.0980e+02    3.8744e+02 ;    C91 - C95    - H149  
    56     60    248      1    1.0980e+02    3.8744e+02 ;    C91 - C95    - H150  
    56     60    249      1    1.0980e+02    3.8744e+02 ;    C91 - C95    - H151  
    56     62     63      1    1.1151e+02    5.2635e+02 ;    C91 - C97    - C98   
    57     39    221      1    1.0980e+02    3.8744e+02 ;    C92 - C74    - H127  
    57     39    222      1    1.0980e+02    3.8744e+02 ;    C92 - C74    - H128  
    57     55     59      1    1.1151e+02    5.2635e+02 ;    C92 - C90    - C94   
    58     44    225      1    1.0980e+02    3.8744e+02 ;    C93 - C79    - H131  
    58     44    226      1    1.0980e+02    3.8744e+02 ;    C93 - C79    - H132  
    58     47    232      1    1.0980e+02    3.8744e+02 ;    C93 - C82    - H138  
    58     47    233      1    1.0980e+02    3.8744e+02 ;    C93 - C82    - H139  
    58     53    242      1    1.0980e+02    3.8744e+02 ;    C93 - C88    - H201  
    58     61     65      1    1.2320e+02    5.6400e+02 ;    C93 - C96    - O15   
    58     61     66      1    1.1518e+02    5.5898e+02 ;    C93 - C96    - N2    
    59     46    230      1    1.0980e+02    3.8744e+02 ;    C94 - C81    - H136  
    59     46    231      1    1.0980e+02    3.8744e+02 ;    C94 - C81    - H137  
    59     56     60      1    1.1151e+02    5.2635e+02 ;    C94 - C91    - C95   
    59     56     62      1    1.1151e+02    5.2635e+02 ;    C94 - C91    - C97   
    60     56     62      1    1.1151e+02    5.2635e+02 ;    C95 - C91    - C97   
    61     66    100      1    1.2069e+02    5.3053e+02 ;    C96 - N2     - C1    
    61     66    373      1    1.1755e+02    4.0417e+02 ;    C96 - N2     - H73   
    62     49    237      1    1.0980e+02    3.8744e+02 ;    C97 - C84    - H143  
    62     49    238      1    1.0980e+02    3.8744e+02 ;    C97 - C84    - H144  
    62     63    250      1    1.0980e+02    3.8744e+02 ;    C97 - C98    - H152  
    62     63    251      1    1.0980e+02    3.8744e+02 ;    C97 - C98    - H153  
    62     63    252      1    1.0980e+02    3.8744e+02 ;    C97 - C98    - H154  
    64     52    241      1    1.1026e+02    4.2593e+02 ;    O14 - C87    - H200  
    65     61     66      1    1.2305e+02    6.2091e+02 ;    O15 - C96    - N2    
    66    100    101      1    1.1161e+02    5.5145e+02 ;     N2 - C1     - C2    
    66    100    301      1    1.0888e+02    4.1673e+02 ;     N2 - C1     - H1    
    66    100    302      1    1.0888e+02    4.1673e+02 ;     N2 - C1     - H2    
    67     74     68      1    1.1151e+02    5.2635e+02 ;    C99 - C106   - C100  
    67     74     70      1    1.1151e+02    5.2635e+02 ;    C99 - C106   - C102  
    67     74     71      1    1.1151e+02    5.2635e+02 ;    C99 - C106   - C103  
    68     74     70      1    1.1151e+02    5.2635e+02 ;   C100 - C106   - C102  
    68     74     71      1    1.1151e+02    5.2635e+02 ;   C100 - C106   - C103  
    69     84     78      1    1.1151e+02    5.2635e+02 ;   C101 - C116   - C110  
    69     84     85      1    1.1151e+02    5.2635e+02 ;   C101 - C116   - C117  
    69     84     90      1    1.1151e+02    5.2635e+02 ;   C101 - C116   - C122  
    70     74     71      1    1.1151e+02    5.2635e+02 ;   C102 - C106   - C103  
    70     86     76      1    1.1156e+02    5.3053e+02 ;   C102 - C118   - C108  
    70     86     91      1    1.1151e+02    5.2635e+02 ;   C102 - C118   - C123  
    70     86    289      1    1.0980e+02    3.8744e+02 ;   C102 - C118   - H206  
    71     80     91      1    1.1151e+02    5.2635e+02 ;   C103 - C112   - C123  
    71     80    279      1    1.0980e+02    3.8744e+02 ;   C103 - C112   - H179  
    71     80    280      1    1.0980e+02    3.8744e+02 ;   C103 - C112   - H180  
    72     87     89      1    1.1151e+02    5.2635e+02 ;   C104 - C119   - C121  
    72     87    290      1    1.0980e+02    3.8744e+02 ;   C104 - C119   - H188  
    72     87    291      1    1.0980e+02    3.8744e+02 ;   C104 - C119   - H189  
    72     90     84      1    1.1151e+02    5.2635e+02 ;   C104 - C122   - C116  
    72     90     88      1    1.1151e+02    5.2635e+02 ;   C104 - C122   - C120  
    72     90    292      1    1.0980e+02    3.8744e+02 ;   C104 - C122   - H207  
    73     83     85      1    1.1151e+02    5.2635e+02 ;   C105 - C115   - C117  
    73     83    286      1    1.0980e+02    3.8744e+02 ;   C105 - C115   - H186  
    73     83    287      1    1.0980e+02    3.8744e+02 ;   C105 - C115   - H187  
    73     88     81      1    1.1151e+02    5.2635e+02 ;   C105 - C120   - C113  
    73     88     90      1    1.1151e+02    5.2635e+02 ;   C105 - C120   - C122  
    73     88     92      1    1.1151e+02    5.2635e+02 ;   C105 - C120   - C124  
    74     67    254      1    1.0980e+02    3.8744e+02 ;   C106 - C99    - H155  
    74     67    255      1    1.0980e+02    3.8744e+02 ;   C106 - C99    - H156  
    74     67    256      1    1.0980e+02    3.8744e+02 ;   C106 - C99    - H157  
    74     68    257      1    1.0980e+02    3.8744e+02 ;   C106 - C100   - H158  
    74     68    258      1    1.0980e+02    3.8744e+02 ;   C106 - C100   - H159  
    74     68    259      1    1.0980e+02    3.8744e+02 ;   C106 - C100   - H160  
    74     70     86      1    1.1151e+02    5.2635e+02 ;   C106 - C102   - C118  
    74     70    263      1    1.0980e+02    3.8744e+02 ;   C106 - C102   - H164  
    74     70    264      1    1.0980e+02    3.8744e+02 ;   C106 - C102   - H165  
    74     71     80      1    1.1151e+02    5.2635e+02 ;   C106 - C103   - C112  
    74     71    265      1    1.0980e+02    3.8744e+02 ;   C106 - C103   - H166  
    74     71    266      1    1.0980e+02    3.8744e+02 ;   C106 - C103   - H167  
    75     76     86      1    1.2363e+02    5.3639e+02 ;   C107 - C108   - C118  
    75     76     95      1    1.2363e+02    5.3639e+02 ;   C107 - C108   - C127  
    75     79     92      1    1.1156e+02    5.3053e+02 ;   C107 - C111   - C124  
    75     79    277      1    1.1036e+02    3.9330e+02 ;   C107 - C111   - H177  
    75     79    278      1    1.1036e+02    3.9330e+02 ;   C107 - C111   - H178  
    76     75     79      1    1.2363e+02    5.3639e+02 ;   C108 - C107   - C111  
    76     75    271      1    1.2043e+02    4.1756e+02 ;   C108 - C107   - H204  
    76     86     91      1    1.1156e+02    5.3053e+02 ;   C108 - C118   - C123  
    76     86    289      1    1.1036e+02    3.9330e+02 ;   C108 - C118   - H206  
    76     95     82      1    1.1156e+02    5.3053e+02 ;   C108 - C127   - C114  
    76     95     89      1    1.1156e+02    5.3053e+02 ;   C108 - C127   - C121  
    76     95     96      1    1.1156e+02    5.3053e+02 ;   C108 - C127   - C128  
    77     82     95      1    1.1151e+02    5.2635e+02 ;   C109 - C114   - C127  
    77     82    284      1    1.0980e+02    3.8744e+02 ;   C109 - C114   - H184  
    77     82    285      1    1.0980e+02    3.8744e+02 ;   C109 - C114   - H185  
    77     91     80      1    1.1151e+02    5.2635e+02 ;   C109 - C123   - C112  
    77     91     86      1    1.1151e+02    5.2635e+02 ;   C109 - C123   - C118  
    77     91     94      1    1.1104e+02    5.2969e+02 ;   C109 - C123   - C126  
    78     84     85      1    1.1151e+02    5.2635e+02 ;   C110 - C116   - C117  
    78     84     90      1    1.1151e+02    5.2635e+02 ;   C110 - C116   - C122  
    79     75    271      1    1.1568e+02    3.8409e+02 ;   C111 - C107   - H204  
    79     92     88      1    1.1151e+02    5.2635e+02 ;   C111 - C124   - C120  
    79     92     89      1    1.1151e+02    5.2635e+02 ;   C111 - C124   - C121  
    79     92    293      1    1.0980e+02    3.8744e+02 ;   C111 - C124   - H208  
    80     71    265      1    1.0980e+02    3.8744e+02 ;   C112 - C103   - H166  
    80     71    266      1    1.0980e+02    3.8744e+02 ;   C112 - C103   - H167  
    80     91     86      1    1.1151e+02    5.2635e+02 ;   C112 - C123   - C118  
    80     91     94      1    1.1104e+02    5.2969e+02 ;   C112 - C123   - C126  
    81     88     90      1    1.1151e+02    5.2635e+02 ;   C113 - C120   - C122  
    81     88     92      1    1.1151e+02    5.2635e+02 ;   C113 - C120   - C124  
    82     77     91      1    1.1151e+02    5.2635e+02 ;   C114 - C109   - C123  
    82     77    272      1    1.0980e+02    3.8744e+02 ;   C114 - C109   - H172  
    82     77    273      1    1.0980e+02    3.8744e+02 ;   C114 - C109   - H173  
    82     95     89      1    1.1151e+02    5.2635e+02 ;   C114 - C127   - C121  
    82     95     96      1    1.1151e+02    5.2635e+02 ;   C114 - C127   - C128  
    83     73     88      1    1.1151e+02    5.2635e+02 ;   C115 - C105   - C120  
    83     73    269      1    1.0980e+02    3.8744e+02 ;   C115 - C105   - H170  
    83     73    270      1    1.0980e+02    3.8744e+02 ;   C115 - C105   - H171  
    83     85     84      1    1.1151e+02    5.2635e+02 ;   C115 - C117   - C116  
    83     85     97      1    1.1019e+02    5.6484e+02 ;   C115 - C117   - O16   
    83     85    288      1    1.0956e+02    3.8828e+02 ;   C115 - C117   - H205  
    84     69    260      1    1.0980e+02    3.8744e+02 ;   C116 - C101   - H161  
    84     69    261      1    1.0980e+02    3.8744e+02 ;   C116 - C101   - H162  
    84     69    262      1    1.0980e+02    3.8744e+02 ;   C116 - C101   - H163  
    84     78    274      1    1.0980e+02    3.8744e+02 ;   C116 - C110   - H174  
    84     78    275      1    1.0980e+02    3.8744e+02 ;   C116 - C110   - H175  
    84     78    276      1    1.0980e+02    3.8744e+02 ;   C116 - C110   - H176  
    84     85     97      1    1.1019e+02    5.6484e+02 ;   C116 - C117   - O16   
    84     85    288      1    1.0956e+02    3.8828e+02 ;   C116 - C117   - H205  
    84     90     88      1    1.1151e+02    5.2635e+02 ;   C116 - C122   - C120  
    84     90    292      1    1.0980e+02    3.8744e+02 ;   C116 - C122   - H207  
    85     83    286      1    1.0980e+02    3.8744e+02 ;   C117 - C115   - H186  
    85     83    287      1    1.0980e+02    3.8744e+02 ;   C117 - C115   - H187  
    85     84     90      1    1.1151e+02    5.2635e+02 ;   C117 - C116   - C122  
    85     97    300      1    1.0726e+02    3.9664e+02 ;   C117 - O16    - H210  
    86     70    263      1    1.0980e+02    3.8744e+02 ;   C118 - C102   - H164  
    86     70    264      1    1.0980e+02    3.8744e+02 ;   C118 - C102   - H165  
    86     76     95      1    1.1565e+02    5.2635e+02 ;   C118 - C108   - C127  
    86     91     94      1    1.1104e+02    5.2969e+02 ;   C118 - C123   - C126  
    87     72     90      1    1.1151e+02    5.2635e+02 ;   C119 - C104   - C122  
    87     72    267      1    1.0980e+02    3.8744e+02 ;   C119 - C104   - H168  
    87     72    268      1    1.0980e+02    3.8744e+02 ;   C119 - C104   - H169  
    87     89     92      1    1.1151e+02    5.2635e+02 ;   C119 - C121   - C124  
    87     89     93      1    1.1151e+02    5.2635e+02 ;   C119 - C121   - C125  
    87     89     95      1    1.1151e+02    5.2635e+02 ;   C119 - C121   - C127  
    88     73    269      1    1.0980e+02    3.8744e+02 ;   C120 - C105   - H170  
    88     73    270      1    1.0980e+02    3.8744e+02 ;   C120 - C105   - H171  
    88     81    281      1    1.0980e+02    3.8744e+02 ;   C120 - C113   - H181  
    88     81    282      1    1.0980e+02    3.8744e+02 ;   C120 - C113   - H182  
    88     81    283      1    1.0980e+02    3.8744e+02 ;   C120 - C113   - H183  
    88     90    292      1    1.0980e+02    3.8744e+02 ;   C120 - C122   - H207  
    88     92     89      1    1.1151e+02    5.2635e+02 ;   C120 - C124   - C121  
    88     92    293      1    1.0980e+02    3.8744e+02 ;   C120 - C124   - H208  
    89     87    290      1    1.0980e+02    3.8744e+02 ;   C121 - C119   - H188  
    89     87    291      1    1.0980e+02    3.8744e+02 ;   C121 - C119   - H189  
    89     92    293      1    1.0980e+02    3.8744e+02 ;   C121 - C124   - H208  
    89     93    294      1    1.0980e+02    3.8744e+02 ;   C121 - C125   - H190  
    89     93    295      1    1.0980e+02    3.8744e+02 ;   C121 - C125   - H191  
    89     93    296      1    1.0980e+02    3.8744e+02 ;   C121 - C125   - H192  
    89     95     96      1    1.1151e+02    5.2635e+02 ;   C121 - C127   - C128  
    90     72    267      1    1.0980e+02    3.8744e+02 ;   C122 - C104   - H168  
    90     72    268      1    1.0980e+02    3.8744e+02 ;   C122 - C104   - H169  
    90     88     92      1    1.1151e+02    5.2635e+02 ;   C122 - C120   - C124  
    91     77    272      1    1.0980e+02    3.8744e+02 ;   C123 - C109   - H172  
    91     77    273      1    1.0980e+02    3.8744e+02 ;   C123 - C109   - H173  
    91     80    279      1    1.0980e+02    3.8744e+02 ;   C123 - C112   - H179  
    91     80    280      1    1.0980e+02    3.8744e+02 ;   C123 - C112   - H180  
    91     86    289      1    1.0980e+02    3.8744e+02 ;   C123 - C118   - H206  
    91     94     98      1    1.2320e+02    5.6400e+02 ;   C123 - C126   - O17   
    91     94     99      1    1.1518e+02    5.5898e+02 ;   C123 - C126   - N3    
    92     79    277      1    1.0980e+02    3.8744e+02 ;   C124 - C111   - H177  
    92     79    278      1    1.0980e+02    3.8744e+02 ;   C124 - C111   - H178  
    92     89     93      1    1.1151e+02    5.2635e+02 ;   C124 - C121   - C125  
    92     89     95      1    1.1151e+02    5.2635e+02 ;   C124 - C121   - C127  
    93     89     95      1    1.1151e+02    5.2635e+02 ;   C125 - C121   - C127  
    94     99    141      1    1.2069e+02    5.3053e+02 ;   C126 - N3     - C27   
    94     99    348      1    1.1755e+02    4.0417e+02 ;   C126 - N3     - H48   
    95     82    284      1    1.0980e+02    3.8744e+02 ;   C127 - C114   - H184  
    95     82    285      1    1.0980e+02    3.8744e+02 ;   C127 - C114   - H185  
    95     96    297      1    1.0980e+02    3.8744e+02 ;   C127 - C128   - H193  
    95     96    298      1    1.0980e+02    3.8744e+02 ;   C127 - C128   - H194  
    95     96    299      1    1.0980e+02    3.8744e+02 ;   C127 - C128   - H195  
    97     85    288      1    1.1026e+02    4.2593e+02 ;    O16 - C117   - H205  
    98     94     99      1    1.2305e+02    6.2091e+02 ;    O17 - C126   - N3    
    99    141    142      1    1.1161e+02    5.5145e+02 ;     N3 - C27    - C28   
    99    141    349      1    1.0888e+02    4.1673e+02 ;     N3 - C27    - H49   
    99    141    350      1    1.0888e+02    4.1673e+02 ;     N3 - C27    - H50   
   100     66    373      1    1.1768e+02    3.8325e+02 ;     C1 - N2     - H73   
   100    101    102      1    1.0797e+02    5.6902e+02 ;     C1 - C2     - O1    
   100    101    303      1    1.0956e+02    3.8828e+02 ;     C1 - C2     - H3    
   100    101    304      1    1.0956e+02    3.8828e+02 ;     C1 - C2     - H4    
   101    100    301      1    1.0956e+02    3.8828e+02 ;     C2 - C1     - H1    
   101    100    302      1    1.0956e+02    3.8828e+02 ;     C2 - C1     - H2    
   101    102    103      1    1.1248e+02    5.2467e+02 ;     C2 - O1     - C3    
   102    101    303      1    1.0978e+02    4.2509e+02 ;     O1 - C2     - H3    
   102    101    304      1    1.0978e+02    4.2509e+02 ;     O1 - C2     - H4    
   102    103    104      1    1.0797e+02    5.6902e+02 ;     O1 - C3     - C4    
   102    103    305      1    1.0978e+02    4.2509e+02 ;     O1 - C3     - H5    
   102    103    306      1    1.0978e+02    4.2509e+02 ;     O1 - C3     - H6    
   103    104    105      1    1.0797e+02    5.6902e+02 ;     C3 - C4     - O2    
   103    104    307      1    1.0956e+02    3.8828e+02 ;     C3 - C4     - H7    
   103    104    308      1    1.0956e+02    3.8828e+02 ;     C3 - C4     - H8    
   104    103    305      1    1.0956e+02    3.8828e+02 ;     C4 - C3     - H5    
   104    103    306      1    1.0956e+02    3.8828e+02 ;     C4 - C3     - H6    
   104    105    106      1    1.1248e+02    5.2467e+02 ;     C4 - O2     - C5    
   105    104    307      1    1.0978e+02    4.2509e+02 ;     O2 - C4     - H7    
   105    104    308      1    1.0978e+02    4.2509e+02 ;     O2 - C4     - H8    
   105    106    107      1    1.0797e+02    5.6902e+02 ;     O2 - C5     - C6    
   105    106    309      1    1.0978e+02    4.2509e+02 ;     O2 - C5     - H9    
   105    106    310      1    1.0978e+02    4.2509e+02 ;     O2 - C5     - H10   
   106    107    108      1    1.0797e+02    5.6902e+02 ;     C5 - C6     - O3    
   106    107    311      1    1.0956e+02    3.8828e+02 ;     C5 - C6     - H11   
   106    107    312      1    1.0956e+02    3.8828e+02 ;     C5 - C6     - H12   
   107    106    309      1    1.0956e+02    3.8828e+02 ;     C6 - C5     - H9    
   107    106    310      1    1.0956e+02    3.8828e+02 ;     C6 - C5     - H10   
   107    108    109      1    1.1248e+02    5.2467e+02 ;     C6 - O3     - C7    
   108    107    311      1    1.0978e+02    4.2509e+02 ;     O3 - C6     - H11   
   108    107    312      1    1.0978e+02    4.2509e+02 ;     O3 - C6     - H12   
   108    109    110      1    1.0797e+02    5.6902e+02 ;     O3 - C7     - C8    
   108    109    313      1    1.0978e+02    4.2509e+02 ;     O3 - C7     - H13   
   108    109    314      1    1.0978e+02    4.2509e+02 ;     O3 - C7     - H14   
   109    110    111      1    1.0797e+02    5.6902e+02 ;     C7 - C8     - O4    
   109    110    315      1    1.0956e+02    3.8828e+02 ;     C7 - C8     - H15   
   109    110    316      1    1.0956e+02    3.8828e+02 ;     C7 - C8     - H16   
   110    109    313      1    1.0956e+02    3.8828e+02 ;     C8 - C7     - H13   
   110    109    314      1    1.0956e+02    3.8828e+02 ;     C8 - C7     - H14   
   110    111    112      1    1.1248e+02    5.2467e+02 ;     C8 - O4     - C9    
   111    110    315      1    1.0978e+02    4.2509e+02 ;     O4 - C8     - H15   
   111    110    316      1    1.0978e+02    4.2509e+02 ;     O4 - C8     - H16   
   111    112    113      1    1.0797e+02    5.6902e+02 ;     O4 - C9     - C10   
   111    112    317      1    1.0978e+02    4.2509e+02 ;     O4 - C9     - H17   
   111    112    318      1    1.0978e+02    4.2509e+02 ;     O4 - C9     - H18   
   112    113    114      1    1.1288e+02    5.4810e+02 ;     C9 - C10    - N4    
   112    113    319      1    1.0956e+02    3.8828e+02 ;     C9 - C10    - H19   
   112    113    320      1    1.0956e+02    3.8828e+02 ;     C9 - C10    - H20   
   113    112    317      1    1.0956e+02    3.8828e+02 ;    C10 - C9     - H17   
   113    112    318      1    1.0956e+02    3.8828e+02 ;    C10 - C9     - H18   
   113    114    115      1    1.2018e+02    5.4810e+02 ;    C10 - N4     - N5    
   113    114    118      1    1.2646e+02    5.1798e+02 ;    C10 - N4     - C12   
   114    113    319      1    1.0878e+02    4.1673e+02 ;     N4 - C10    - H19   
   114    113    320      1    1.0878e+02    4.1673e+02 ;     N4 - C10    - H20   
   114    115    116      1    1.0624e+02    6.3597e+02 ;     N4 - N5     - N6    
   114    118    117      1    1.0699e+02    6.1421e+02 ;     N4 - C12    - C11   
   114    118    321      1    1.2053e+02    4.1673e+02 ;     N4 - C12    - H21   
   115    114    118      1    1.1236e+02    5.8576e+02 ;     N5 - N4     - C12   
   115    116    117      1    1.0862e+02    6.1003e+02 ;     N5 - N6     - C11   
   116    117    118      1    1.1165e+02    6.0417e+02 ;     N6 - C11    - C12   
   116    117    119      1    1.2095e+02    5.5229e+02 ;     N6 - C11    - C13   
   117    118    321      1    1.2848e+02    3.9581e+02 ;    C11 - C12    - H21   
   117    119    120      1    1.1109e+02    5.5982e+02 ;    C11 - C13    - N7    
   117    119    322      1    1.0964e+02    3.9664e+02 ;    C11 - C13    - H22   
   117    119    323      1    1.0964e+02    3.9664e+02 ;    C11 - C13    - H23   
   118    117    119      1    1.1945e+02    5.4141e+02 ;    C12 - C11    - C13   
   119    120    140      1    1.1235e+02    5.3388e+02 ;    C13 - N7     - C26   
   119    120    160      1    1.1235e+02    5.3388e+02 ;    C13 - N7     - C39   
   120    119    322      1    1.0988e+02    4.1422e+02 ;     N7 - C13    - H22   
   120    119    323      1    1.0988e+02    4.1422e+02 ;     N7 - C13    - H23   
   120    140    138      1    1.1109e+02    5.5982e+02 ;     N7 - C26    - C24   
   120    140    346      1    1.0988e+02    4.1422e+02 ;     N7 - C26    - H46   
   120    140    347      1    1.0988e+02    4.1422e+02 ;     N7 - C26    - H47   
   120    160    158      1    1.1109e+02    5.5982e+02 ;     N7 - C39    - C37   
   120    160    370      1    1.0988e+02    4.1422e+02 ;     N7 - C39    - H70   
   120    160    371      1    1.0988e+02    4.1422e+02 ;     N7 - C39    - H71   
   121     33    324      1    1.1768e+02    3.8325e+02 ;    C14 - N1     - H24   
   121    122    123      1    1.0797e+02    5.6902e+02 ;    C14 - C15    - O5    
   121    122    327      1    1.0956e+02    3.8828e+02 ;    C14 - C15    - H27   
   121    122    328      1    1.0956e+02    3.8828e+02 ;    C14 - C15    - H28   
   122    121    325      1    1.0956e+02    3.8828e+02 ;    C15 - C14    - H25   
   122    121    326      1    1.0956e+02    3.8828e+02 ;    C15 - C14    - H26   
   122    123    124      1    1.1248e+02    5.2467e+02 ;    C15 - O5     - C16   
   123    122    327      1    1.0978e+02    4.2509e+02 ;     O5 - C15    - H27   
   123    122    328      1    1.0978e+02    4.2509e+02 ;     O5 - C15    - H28   
   123    124    125      1    1.0797e+02    5.6902e+02 ;     O5 - C16    - C17   
   123    124    329      1    1.0978e+02    4.2509e+02 ;     O5 - C16    - H29   
   123    124    330      1    1.0978e+02    4.2509e+02 ;     O5 - C16    - H30   
   124    125    126      1    1.0797e+02    5.6902e+02 ;    C16 - C17    - O6    
   124    125    331      1    1.0956e+02    3.8828e+02 ;    C16 - C17    - H31   
   124    125    332      1    1.0956e+02    3.8828e+02 ;    C16 - C17    - H32   
   125    124    329      1    1.0956e+02    3.8828e+02 ;    C17 - C16    - H29   
   125    124    330      1    1.0956e+02    3.8828e+02 ;    C17 - C16    - H30   
   125    126    127      1    1.1248e+02    5.2467e+02 ;    C17 - O6     - C18   
   126    125    331      1    1.0978e+02    4.2509e+02 ;     O6 - C17    - H31   
   126    125    332      1    1.0978e+02    4.2509e+02 ;     O6 - C17    - H32   
   126    127    128      1    1.0797e+02    5.6902e+02 ;     O6 - C18    - C19   
   126    127    333      1    1.0978e+02    4.2509e+02 ;     O6 - C18    - H33   
   126    127    334      1    1.0978e+02    4.2509e+02 ;     O6 - C18    - H34   
   127    128    129      1    1.0797e+02    5.6902e+02 ;    C18 - C19    - O7    
   127    128    335      1    1.0956e+02    3.8828e+02 ;    C18 - C19    - H35   
   127    128    336      1    1.0956e+02    3.8828e+02 ;    C18 - C19    - H36   
   128    127    333      1    1.0956e+02    3.8828e+02 ;    C19 - C18    - H33   
   128    127    334      1    1.0956e+02    3.8828e+02 ;    C19 - C18    - H34   
   128    129    130      1    1.1248e+02    5.2467e+02 ;    C19 - O7     - C20   
   129    128    335      1    1.0978e+02    4.2509e+02 ;     O7 - C19    - H35   
   129    128    336      1    1.0978e+02    4.2509e+02 ;     O7 - C19    - H36   
   129    130    131      1    1.0797e+02    5.6902e+02 ;     O7 - C20    - C21   
   129    130    337      1    1.0978e+02    4.2509e+02 ;     O7 - C20    - H37   
   129    130    338      1    1.0978e+02    4.2509e+02 ;     O7 - C20    - H38   
   130    131    132      1    1.0797e+02    5.6902e+02 ;    C20 - C21    - O8    
   130    131    339      1    1.0956e+02    3.8828e+02 ;    C20 - C21    - H39   
   130    131    340      1    1.0956e+02    3.8828e+02 ;    C20 - C21    - H40   
   131    130    337      1    1.0956e+02    3.8828e+02 ;    C21 - C20    - H37   
   131    130    338      1    1.0956e+02    3.8828e+02 ;    C21 - C20    - H38   
   131    132    133      1    1.1248e+02    5.2467e+02 ;    C21 - O8     - C22   
   132    131    339      1    1.0978e+02    4.2509e+02 ;     O8 - C21    - H39   
   132    131    340      1    1.0978e+02    4.2509e+02 ;     O8 - C21    - H40   
   132    133    134      1    1.0797e+02    5.6902e+02 ;     O8 - C22    - C23   
   132    133    341      1    1.0978e+02    4.2509e+02 ;     O8 - C22    - H41   
   132    133    342      1    1.0978e+02    4.2509e+02 ;     O8 - C22    - H42   
   133    134    135      1    1.1288e+02    5.4810e+02 ;    C22 - C23    - N8    
   133    134    343      1    1.0956e+02    3.8828e+02 ;    C22 - C23    - H43   
   133    134    344      1    1.0956e+02    3.8828e+02 ;    C22 - C23    - H44   
   134    133    341      1    1.0956e+02    3.8828e+02 ;    C23 - C22    - H41   
   134    133    342      1    1.0956e+02    3.8828e+02 ;    C23 - C22    - H42   
   134    135    136      1    1.2018e+02    5.4810e+02 ;    C23 - N8     - N9    
   134    135    139      1    1.2646e+02    5.1798e+02 ;    C23 - N8     - C25   
   135    134    343      1    1.0878e+02    4.1673e+02 ;     N8 - C23    - H43   
   135    134    344      1    1.0878e+02    4.1673e+02 ;     N8 - C23    - H44   
   135    136    137      1    1.0624e+02    6.3597e+02 ;     N8 - N9     - N10   
   135    139    138      1    1.0699e+02    6.1421e+02 ;     N8 - C25    - C24   
   135    139    345      1    1.2053e+02    4.1673e+02 ;     N8 - C25    - H45   
   136    135    139      1    1.1236e+02    5.8576e+02 ;     N9 - N8     - C25   
   136    137    138      1    1.0862e+02    6.1003e+02 ;     N9 - N10    - C24   
   137    138    139      1    1.1165e+02    6.0417e+02 ;    N10 - C24    - C25   
   137    138    140      1    1.2095e+02    5.5229e+02 ;    N10 - C24    - C26   
   138    139    345      1    1.2848e+02    3.9581e+02 ;    C24 - C25    - H45   
   138    140    346      1    1.0964e+02    3.9664e+02 ;    C24 - C26    - H46   
   138    140    347      1    1.0964e+02    3.9664e+02 ;    C24 - C26    - H47   
   139    138    140      1    1.1945e+02    5.4141e+02 ;    C25 - C24    - C26   
   140    120    160      1    1.1235e+02    5.3388e+02 ;    C26 - N7     - C39   
   141     99    348      1    1.1768e+02    3.8325e+02 ;    C27 - N3     - H48   
   141    142    143      1    1.0797e+02    5.6902e+02 ;    C27 - C28    - O9    
   141    142    351      1    1.0956e+02    3.8828e+02 ;    C27 - C28    - H51   
   141    142    352      1    1.0956e+02    3.8828e+02 ;    C27 - C28    - H52   
   142    141    349      1    1.0956e+02    3.8828e+02 ;    C28 - C27    - H49   
   142    141    350      1    1.0956e+02    3.8828e+02 ;    C28 - C27    - H50   
   142    143    144      1    1.1248e+02    5.2467e+02 ;    C28 - O9     - C29   
   143    142    351      1    1.0978e+02    4.2509e+02 ;     O9 - C28    - H51   
   143    142    352      1    1.0978e+02    4.2509e+02 ;     O9 - C28    - H52   
   143    144    145      1    1.0797e+02    5.6902e+02 ;     O9 - C29    - C30   
   143    144    353      1    1.0978e+02    4.2509e+02 ;     O9 - C29    - H53   
   143    144    354      1    1.0978e+02    4.2509e+02 ;     O9 - C29    - H54   
   144    145    146      1    1.0797e+02    5.6902e+02 ;    C29 - C30    - O10   
   144    145    355      1    1.0956e+02    3.8828e+02 ;    C29 - C30    - H55   
   144    145    356      1    1.0956e+02    3.8828e+02 ;    C29 - C30    - H56   
   145    144    353      1    1.0956e+02    3.8828e+02 ;    C30 - C29    - H53   
   145    144    354      1    1.0956e+02    3.8828e+02 ;    C30 - C29    - H54   
   145    146    147      1    1.1248e+02    5.2467e+02 ;    C30 - O10    - C31   
   146    145    355      1    1.0978e+02    4.2509e+02 ;    O10 - C30    - H55   
   146    145    356      1    1.0978e+02    4.2509e+02 ;    O10 - C30    - H56   
   146    147    148      1    1.0797e+02    5.6902e+02 ;    O10 - C31    - C32   
   146    147    357      1    1.0978e+02    4.2509e+02 ;    O10 - C31    - H57   
   146    147    358      1    1.0978e+02    4.2509e+02 ;    O10 - C31    - H58   
   147    148    149      1    1.0797e+02    5.6902e+02 ;    C31 - C32    - O11   
   147    148    359      1    1.0956e+02    3.8828e+02 ;    C31 - C32    - H59   
   147    148    360      1    1.0956e+02    3.8828e+02 ;    C31 - C32    - H60   
   148    147    357      1    1.0956e+02    3.8828e+02 ;    C32 - C31    - H57   
   148    147    358      1    1.0956e+02    3.8828e+02 ;    C32 - C31    - H58   
   148    149    150      1    1.1248e+02    5.2467e+02 ;    C32 - O11    - C33   
   149    148    359      1    1.0978e+02    4.2509e+02 ;    O11 - C32    - H59   
   149    148    360      1    1.0978e+02    4.2509e+02 ;    O11 - C32    - H60   
   149    150    151      1    1.0797e+02    5.6902e+02 ;    O11 - C33    - C34   
   149    150    361      1    1.0978e+02    4.2509e+02 ;    O11 - C33    - H61   
   149    150    362      1    1.0978e+02    4.2509e+02 ;    O11 - C33    - H62   
   150    151    152      1    1.0797e+02    5.6902e+02 ;    C33 - C34    - O12   
   150    151    363      1    1.0956e+02    3.8828e+02 ;    C33 - C34    - H63   
   150    151    364      1    1.0956e+02    3.8828e+02 ;    C33 - C34    - H64   
   151    150    361      1    1.0956e+02    3.8828e+02 ;    C34 - C33    - H61   
   151    150    362      1    1.0956e+02    3.8828e+02 ;    C34 - C33    - H62   
   151    152    153      1    1.1248e+02    5.2467e+02 ;    C34 - O12    - C35   
   152    151    363      1    1.0978e+02    4.2509e+02 ;    O12 - C34    - H63   
   152    151    364      1    1.0978e+02    4.2509e+02 ;    O12 - C34    - H64   
   152    153    154      1    1.0797e+02    5.6902e+02 ;    O12 - C35    - C36   
   152    153    365      1    1.0978e+02    4.2509e+02 ;    O12 - C35    - H65   
   152    153    366      1    1.0978e+02    4.2509e+02 ;    O12 - C35    - H66   
   153    154    155      1    1.1288e+02    5.4810e+02 ;    C35 - C36    - N11   
   153    154    367      1    1.0956e+02    3.8828e+02 ;    C35 - C36    - H67   
   153    154    368      1    1.0956e+02    3.8828e+02 ;    C35 - C36    - H68   
   154    153    365      1    1.0956e+02    3.8828e+02 ;    C36 - C35    - H65   
   154    153    366      1    1.0956e+02    3.8828e+02 ;    C36 - C35    - H66   
   154    155    156      1    1.2018e+02    5.4810e+02 ;    C36 - N11    - N12   
   154    155    159      1    1.2646e+02    5.1798e+02 ;    C36 - N11    - C38   
   155    154    367      1    1.0878e+02    4.1673e+02 ;    N11 - C36    - H67   
   155    154    368      1    1.0878e+02    4.1673e+02 ;    N11 - C36    - H68   
   155    156    157      1    1.0624e+02    6.3597e+02 ;    N11 - N12    - N13   
   155    159    158      1    1.0699e+02    6.1421e+02 ;    N11 - C38    - C37   
   155    159    369      1    1.2053e+02    4.1673e+02 ;    N11 - C38    - H69   
   156    155    159      1    1.1236e+02    5.8576e+02 ;    N12 - N11    - C38   
   156    157    158      1    1.0862e+02    6.1003e+02 ;    N12 - N13    - C37   
   157    158    159      1    1.1165e+02    6.0417e+02 ;    N13 - C37    - C38   
   157    158    160      1    1.2095e+02    5.5229e+02 ;    N13 - C37    - C39   
   158    159    369      1    1.2848e+02    3.9581e+02 ;    C37 - C38    - H69   
   158    160    370      1    1.0964e+02    3.9664e+02 ;    C37 - C39    - H70   
   158    160    371      1    1.0964e+02    3.9664e+02 ;    C37 - C39    - H71   
   159    158    160      1    1.1945e+02    5.4141e+02 ;    C38 - C37    - C39   
   161      1    162      1    1.0758e+02    3.2970e+02 ;   HHXT - C      - H74   
   161      1    163      1    1.0758e+02    3.2970e+02 ;   HHXT - C      - H75   
   162      1    163      1    1.0758e+02    3.2970e+02 ;    H74 - C      - H75   
   164      2    165      1    1.0758e+02    3.2970e+02 ;    H76 - C40    - H77   
   164      2    166      1    1.0758e+02    3.2970e+02 ;    H76 - C40    - H78   
   165      2    166      1    1.0758e+02    3.2970e+02 ;    H77 - C40    - H78   
   167      3    168      1    1.0758e+02    3.2970e+02 ;    H79 - C41    - H80   
   167      3    169      1    1.0758e+02    3.2970e+02 ;    H79 - C41    - H81   
   168      3    169      1    1.0758e+02    3.2970e+02 ;    H80 - C41    - H81   
   170      4    171      1    1.0758e+02    3.2970e+02 ;    H82 - C42    - H83   
   172      5    173      1    1.0758e+02    3.2970e+02 ;    H84 - C43    - H85   
   174      6    175      1    1.0758e+02    3.2970e+02 ;    H86 - C44    - H87   
   176      7    177      1    1.0758e+02    3.2970e+02 ;    H88 - C45    - H89   
   179     11    180      1    1.0758e+02    3.2970e+02 ;    H90 - C49    - H91   
   181     12    182      1    1.0758e+02    3.2970e+02 ;    H92 - C50    - H93   
   181     12    183      1    1.0758e+02    3.2970e+02 ;    H92 - C50    - H94   
   182     12    183      1    1.0758e+02    3.2970e+02 ;    H93 - C50    - H94   
   184     13    185      1    1.0758e+02    3.2970e+02 ;    H95 - C51    - H96   
   186     14    187      1    1.0758e+02    3.2970e+02 ;    H97 - C52    - H98   
   188     15    189      1    1.0758e+02    3.2970e+02 ;    H99 - C53    - H100  
   188     15    190      1    1.0758e+02    3.2970e+02 ;    H99 - C53    - H101  
   189     15    190      1    1.0758e+02    3.2970e+02 ;   H100 - C53    - H101  
   191     16    192      1    1.0758e+02    3.2970e+02 ;   H102 - C54    - H103  
   193     17    194      1    1.0758e+02    3.2970e+02 ;   H104 - C55    - H105  
   197     21    198      1    1.0758e+02    3.2970e+02 ;   H106 - C59    - H107  
   201     27    202      1    1.0758e+02    3.2970e+02 ;   H108 - C65    - H109  
   201     27    203      1    1.0758e+02    3.2970e+02 ;   H108 - C65    - H110  
   202     27    203      1    1.0758e+02    3.2970e+02 ;   H109 - C65    - H110  
   204     30    205      1    1.0758e+02    3.2970e+02 ;   H111 - C68    - H112  
   204     30    206      1    1.0758e+02    3.2970e+02 ;   H111 - C68    - H113  
   205     30    206      1    1.0758e+02    3.2970e+02 ;   H112 - C68    - H113  
   208     34    209      1    1.0758e+02    3.2970e+02 ;   H114 - C69    - H115  
   208     34    210      1    1.0758e+02    3.2970e+02 ;   H114 - C69    - H116  
   209     34    210      1    1.0758e+02    3.2970e+02 ;   H115 - C69    - H116  
   211     35    212      1    1.0758e+02    3.2970e+02 ;   H117 - C70    - H118  
   211     35    213      1    1.0758e+02    3.2970e+02 ;   H117 - C70    - H119  
   212     35    213      1    1.0758e+02    3.2970e+02 ;   H118 - C70    - H119  
   214     36    215      1    1.0758e+02    3.2970e+02 ;   H120 - C71    - H121  
   214     36    216      1    1.0758e+02    3.2970e+02 ;   H120 - C71    - H122  
   215     36    216      1    1.0758e+02    3.2970e+02 ;   H121 - C71    - H122  
   217     37    218      1    1.0758e+02    3.2970e+02 ;   H123 - C72    - H124  
   219     38    220      1    1.0758e+02    3.2970e+02 ;   H125 - C73    - H126  
   221     39    222      1    1.0758e+02    3.2970e+02 ;   H127 - C74    - H128  
   223     40    224      1    1.0758e+02    3.2970e+02 ;   H129 - C75    - H130  
   225     44    226      1    1.0758e+02    3.2970e+02 ;   H131 - C79    - H132  
   227     45    228      1    1.0758e+02    3.2970e+02 ;   H133 - C80    - H134  
   227     45    229      1    1.0758e+02    3.2970e+02 ;   H133 - C80    - H135  
   228     45    229      1    1.0758e+02    3.2970e+02 ;   H134 - C80    - H135  
   230     46    231      1    1.0758e+02    3.2970e+02 ;   H136 - C81    - H137  
   232     47    233      1    1.0758e+02    3.2970e+02 ;   H138 - C82    - H139  
   234     48    235      1    1.0758e+02    3.2970e+02 ;   H140 - C83    - H141  
   234     48    236      1    1.0758e+02    3.2970e+02 ;   H140 - C83    - H142  
   235     48    236      1    1.0758e+02    3.2970e+02 ;   H141 - C83    - H142  
   237     49    238      1    1.0758e+02    3.2970e+02 ;   H143 - C84    - H144  
   239     50    240      1    1.0758e+02    3.2970e+02 ;   H145 - C85    - H146  
   243     54    244      1    1.0758e+02    3.2970e+02 ;   H147 - C89    - H148  
   247     60    248      1    1.0758e+02    3.2970e+02 ;   H149 - C95    - H150  
   247     60    249      1    1.0758e+02    3.2970e+02 ;   H149 - C95    - H151  
   248     60    249      1    1.0758e+02    3.2970e+02 ;   H150 - C95    - H151  
   250     63    251      1    1.0758e+02    3.2970e+02 ;   H152 - C98    - H153  
   250     63    252      1    1.0758e+02    3.2970e+02 ;   H152 - C98    - H154  
   251     63    252      1    1.0758e+02    3.2970e+02 ;   H153 - C98    - H154  
   254     67    255      1    1.0758e+02    3.2970e+02 ;   H155 - C99    - H156  
   254     67    256      1    1.0758e+02    3.2970e+02 ;   H155 - C99    - H157  
   255     67    256      1    1.0758e+02    3.2970e+02 ;   H156 - C99    - H157  
   257     68    258      1    1.0758e+02    3.2970e+02 ;   H158 - C100   - H159  
   257     68    259      1    1.0758e+02    3.2970e+02 ;   H158 - C100   - H160  
   258     68    259      1    1.0758e+02    3.2970e+02 ;   H159 - C100   - H160  
   260     69    261      1    1.0758e+02    3.2970e+02 ;   H161 - C101   - H162  
   260     69    262      1    1.0758e+02    3.2970e+02 ;   H161 - C101   - H163  
   261     69    262      1    1.0758e+02    3.2970e+02 ;   H162 - C101   - H163  
   263     70    264      1    1.0758e+02    3.2970e+02 ;   H164 - C102   - H165  
   265     71    266      1    1.0758e+02    3.2970e+02 ;   H166 - C103   - H167  
   267     72    268      1    1.0758e+02    3.2970e+02 ;   H168 - C104   - H169  
   269     73    270      1    1.0758e+02    3.2970e+02 ;   H170 - C105   - H171  
   272     77    273      1    1.0758e+02    3.2970e+02 ;   H172 - C109   - H173  
   274     78    275      1    1.0758e+02    3.2970e+02 ;   H174 - C110   - H175  
   274     78    276      1    1.0758e+02    3.2970e+02 ;   H174 - C110   - H176  
   275     78    276      1    1.0758e+02    3.2970e+02 ;   H175 - C110   - H176  
   277     79    278      1    1.0758e+02    3.2970e+02 ;   H177 - C111   - H178  
   279     80    280      1    1.0758e+02    3.2970e+02 ;   H179 - C112   - H180  
   281     81    282      1    1.0758e+02    3.2970e+02 ;   H181 - C113   - H182  
   281     81    283      1    1.0758e+02    3.2970e+02 ;   H181 - C113   - H183  
   282     81    283      1    1.0758e+02    3.2970e+02 ;   H182 - C113   - H183  
   284     82    285      1    1.0758e+02    3.2970e+02 ;   H184 - C114   - H185  
   286     83    287      1    1.0758e+02    3.2970e+02 ;   H186 - C115   - H187  
   290     87    291      1    1.0758e+02    3.2970e+02 ;   H188 - C119   - H189  
   294     93    295      1    1.0758e+02    3.2970e+02 ;   H190 - C125   - H191  
   294     93    296      1    1.0758e+02    3.2970e+02 ;   H190 - C125   - H192  
   295     93    296      1    1.0758e+02    3.2970e+02 ;   H191 - C125   - H192  
   297     96    298      1    1.0758e+02    3.2970e+02 ;   H193 - C128   - H194  
   297     96    299      1    1.0758e+02    3.2970e+02 ;   H193 - C128   - H195  
   298     96    299      1    1.0758e+02    3.2970e+02 ;   H194 - C128   - H195  
   301    100    302      1    1.0846e+02    3.2803e+02 ;     H1 - C1     - H2    
   303    101    304      1    1.0846e+02    3.2803e+02 ;     H3 - C2     - H4    
   305    103    306      1    1.0846e+02    3.2803e+02 ;     H5 - C3     - H6    
   307    104    308      1    1.0846e+02    3.2803e+02 ;     H7 - C4     - H8    
   309    106    310      1    1.0846e+02    3.2803e+02 ;     H9 - C5     - H10   
   311    107    312      1    1.0846e+02    3.2803e+02 ;    H11 - C6     - H12   
   313    109    314      1    1.0846e+02    3.2803e+02 ;    H13 - C7     - H14   
   315    110    316      1    1.0846e+02    3.2803e+02 ;    H15 - C8     - H16   
   317    112    318      1    1.0846e+02    3.2803e+02 ;    H17 - C9     - H18   
   319    113    320      1    1.0846e+02    3.2803e+02 ;    H19 - C10    - H20   
   322    119    323      1    1.0846e+02    3.2803e+02 ;    H22 - C13    - H23   
   325    121    326      1    1.0846e+02    3.2803e+02 ;    H25 - C14    - H26   
   327    122    328      1    1.0846e+02    3.2803e+02 ;    H27 - C15    - H28   
   329    124    330      1    1.0846e+02    3.2803e+02 ;    H29 - C16    - H30   
   331    125    332      1    1.0846e+02    3.2803e+02 ;    H31 - C17    - H32   
   333    127    334      1    1.0846e+02    3.2803e+02 ;    H33 - C18    - H34   
   335    128    336      1    1.0846e+02    3.2803e+02 ;    H35 - C19    - H36   
   337    130    338      1    1.0846e+02    3.2803e+02 ;    H37 - C20    - H38   
   339    131    340      1    1.0846e+02    3.2803e+02 ;    H39 - C21    - H40   
   341    133    342      1    1.0846e+02    3.2803e+02 ;    H41 - C22    - H42   
   343    134    344      1    1.0846e+02    3.2803e+02 ;    H43 - C23    - H44   
   346    140    347      1    1.0846e+02    3.2803e+02 ;    H46 - C26    - H47   
   349    141    350      1    1.0846e+02    3.2803e+02 ;    H49 - C27    - H50   
   351    142    352      1    1.0846e+02    3.2803e+02 ;    H51 - C28    - H52   
   353    144    354      1    1.0846e+02    3.2803e+02 ;    H53 - C29    - H54   
   355    145    356      1    1.0846e+02    3.2803e+02 ;    H55 - C30    - H56   
   357    147    358      1    1.0846e+02    3.2803e+02 ;    H57 - C31    - H58   
   359    148    360      1    1.0846e+02    3.2803e+02 ;    H59 - C32    - H60   
   361    150    362      1    1.0846e+02    3.2803e+02 ;    H61 - C33    - H62   
   363    151    364      1    1.0846e+02    3.2803e+02 ;    H63 - C34    - H64   
   365    153    366      1    1.0846e+02    3.2803e+02 ;    H65 - C35    - H66   
   367    154    368      1    1.0846e+02    3.2803e+02 ;    H67 - C36    - H68   
   370    160    371      1    1.0846e+02    3.2803e+02 ;    H70 - C39    - H71   

[ dihedrals ] ; propers
; for gromacs 4.5 or higher, using funct 9
;    i      j      k      l   func   phase     kd      pn
     1      8      2    164      9     0.00   0.66944   3 ;      C-   C46-   C40-   H76
     1      8      2    165      9     0.00   0.66944   3 ;      C-   C46-   C40-   H77
     1      8      2    166      9     0.00   0.66944   3 ;      C-   C46-   C40-   H78
     1      8      4     20      9     0.00   0.75312   3 ;      C-   C46-   C42-   C58
     1      8      4     20      9   180.00   0.83680   1 ;      C-   C46-   C42-   C58
     1      8      4     20      9   180.00   1.04600   2 ;      C-   C46-   C42-   C58
     1      8      4    170      9     0.00   0.66944   3 ;      C-   C46-   C42-   H82
     1      8      4    171      9     0.00   0.66944   3 ;      C-   C46-   C42-   H83
     1      8      5     14      9     0.00   0.75312   3 ;      C-   C46-   C43-   C52
     1      8      5     14      9   180.00   0.83680   1 ;      C-   C46-   C43-   C52
     1      8      5     14      9   180.00   1.04600   2 ;      C-   C46-   C43-   C52
     1      8      5    172      9     0.00   0.66944   3 ;      C-   C46-   C43-   H84
     1      8      5    173      9     0.00   0.66944   3 ;      C-   C46-   C43-   H85
     2      8      4     20      9     0.00   0.75312   3 ;    C40-   C46-   C42-   C58
     2      8      4     20      9   180.00   0.83680   1 ;    C40-   C46-   C42-   C58
     2      8      4     20      9   180.00   1.04600   2 ;    C40-   C46-   C42-   C58
     2      8      4    170      9     0.00   0.66944   3 ;    C40-   C46-   C42-   H82
     2      8      4    171      9     0.00   0.66944   3 ;    C40-   C46-   C42-   H83
     2      8      5     14      9     0.00   0.75312   3 ;    C40-   C46-   C43-   C52
     2      8      5     14      9   180.00   0.83680   1 ;    C40-   C46-   C43-   C52
     2      8      5     14      9   180.00   1.04600   2 ;    C40-   C46-   C43-   C52
     2      8      5    172      9     0.00   0.66944   3 ;    C40-   C46-   C43-   H84
     2      8      5    173      9     0.00   0.66944   3 ;    C40-   C46-   C43-   H85
     3     18     12    181      9     0.00   0.66944   3 ;    C41-   C56-   C50-   H92
     3     18     12    182      9     0.00   0.66944   3 ;    C41-   C56-   C50-   H93
     3     18     12    183      9     0.00   0.66944   3 ;    C41-   C56-   C50-   H94
     3     18     19     17      9     0.00   0.75312   3 ;    C41-   C56-   C57-   C55
     3     18     19     17      9   180.00   0.83680   1 ;    C41-   C56-   C57-   C55
     3     18     19     17      9   180.00   1.04600   2 ;    C41-   C56-   C57-   C55
     3     18     19     31      9     0.00   0.65084   3 ;    C41-   C56-   C57-     O
     3     18     19    195      9     0.00   0.65084   3 ;    C41-   C56-   C57-  H196
     3     18     24      6      9     0.00   0.75312   3 ;    C41-   C56-   C62-   C44
     3     18     24      6      9   180.00   0.83680   1 ;    C41-   C56-   C62-   C44
     3     18     24      6      9   180.00   1.04600   2 ;    C41-   C56-   C62-   C44
     3     18     24     22      9     0.00   0.75312   3 ;    C41-   C56-   C62-   C60
     3     18     24     22      9   180.00   0.83680   1 ;    C41-   C56-   C62-   C60
     3     18     24     22      9   180.00   1.04600   2 ;    C41-   C56-   C62-   C60
     3     18     24    199      9     0.00   0.66944   3 ;    C41-   C56-   C62-  H198
     4      8      2    164      9     0.00   0.66944   3 ;    C42-   C46-   C40-   H76
     4      8      2    165      9     0.00   0.66944   3 ;    C42-   C46-   C40-   H77
     4      8      2    166      9     0.00   0.66944   3 ;    C42-   C46-   C40-   H78
     4      8      5     14      9     0.00   0.75312   3 ;    C42-   C46-   C43-   C52
     4      8      5     14      9   180.00   0.83680   1 ;    C42-   C46-   C43-   C52
     4      8      5     14      9   180.00   1.04600   2 ;    C42-   C46-   C43-   C52
     4      8      5    172      9     0.00   0.66944   3 ;    C42-   C46-   C43-   H84
     4      8      5    173      9     0.00   0.66944   3 ;    C42-   C46-   C43-   H85
     4     20     10      9      9     0.00   0.00000   0 ;    C42-   C58-   C48-   C47
     4     20     10     29      9     0.00   0.00000   0 ;    C42-   C58-   C48-   C67
     4     20     25     11      9     0.00   0.75312   3 ;    C42-   C58-   C63-   C49
     4     20     25     11      9   180.00   0.83680   1 ;    C42-   C58-   C63-   C49
     4     20     25     11      9   180.00   1.04600   2 ;    C42-   C58-   C63-   C49
     4     20     25     14      9     0.00   0.75312   3 ;    C42-   C58-   C63-   C52
     4     20     25     14      9   180.00   0.83680   1 ;    C42-   C58-   C63-   C52
     4     20     25     14      9   180.00   1.04600   2 ;    C42-   C58-   C63-   C52
     4     20     25     28      9     0.00   0.65084   3 ;    C42-   C58-   C63-   C66
     5      8      2    164      9     0.00   0.66944   3 ;    C43-   C46-   C40-   H76
     5      8      2    165      9     0.00   0.66944   3 ;    C43-   C46-   C40-   H77
     5      8      2    166      9     0.00   0.66944   3 ;    C43-   C46-   C40-   H78
     5      8      4     20      9     0.00   0.75312   3 ;    C43-   C46-   C42-   C58
     5      8      4     20      9   180.00   0.83680   1 ;    C43-   C46-   C42-   C58
     5      8      4     20      9   180.00   1.04600   2 ;    C43-   C46-   C42-   C58
     5      8      4    170      9     0.00   0.66944   3 ;    C43-   C46-   C42-   H82
     5      8      4    171      9     0.00   0.66944   3 ;    C43-   C46-   C42-   H83
     5     14     25     11      9     0.00   0.75312   3 ;    C43-   C52-   C63-   C49
     5     14     25     11      9   180.00   0.83680   1 ;    C43-   C52-   C63-   C49
     5     14     25     11      9   180.00   1.04600   2 ;    C43-   C52-   C63-   C49
     5     14     25     20      9     0.00   0.75312   3 ;    C43-   C52-   C63-   C58
     5     14     25     20      9   180.00   0.83680   1 ;    C43-   C52-   C63-   C58
     5     14     25     20      9   180.00   1.04600   2 ;    C43-   C52-   C63-   C58
     5     14     25     28      9     0.00   0.65084   3 ;    C43-   C52-   C63-   C66
     6     21     23     26      9     0.00   0.75312   3 ;    C44-   C59-   C61-   C64
     6     21     23     26      9   180.00   0.83680   1 ;    C44-   C59-   C61-   C64
     6     21     23     26      9   180.00   1.04600   2 ;    C44-   C59-   C61-   C64
     6     21     23     27      9     0.00   0.75312   3 ;    C44-   C59-   C61-   C65
     6     21     23     27      9   180.00   0.83680   1 ;    C44-   C59-   C61-   C65
     6     21     23     27      9   180.00   1.04600   2 ;    C44-   C59-   C61-   C65
     6     21     23     29      9     0.00   0.75312   3 ;    C44-   C59-   C61-   C67
     6     21     23     29      9   180.00   0.83680   1 ;    C44-   C59-   C61-   C67
     6     21     23     29      9   180.00   1.04600   2 ;    C44-   C59-   C61-   C67
     6     24     18     12      9     0.00   0.75312   3 ;    C44-   C62-   C56-   C50
     6     24     18     12      9   180.00   0.83680   1 ;    C44-   C62-   C56-   C50
     6     24     18     12      9   180.00   1.04600   2 ;    C44-   C62-   C56-   C50
     6     24     18     19      9     0.00   0.75312   3 ;    C44-   C62-   C56-   C57
     6     24     18     19      9   180.00   0.83680   1 ;    C44-   C62-   C56-   C57
     6     24     18     19      9   180.00   1.04600   2 ;    C44-   C62-   C56-   C57
     6     24     22      7      9     0.00   0.75312   3 ;    C44-   C62-   C60-   C45
     6     24     22      7      9   180.00   0.83680   1 ;    C44-   C62-   C60-   C45
     6     24     22      7      9   180.00   1.04600   2 ;    C44-   C62-   C60-   C45
     6     24     22     15      9     0.00   0.75312   3 ;    C44-   C62-   C60-   C53
     6     24     22     15      9   180.00   0.83680   1 ;    C44-   C62-   C60-   C53
     6     24     22     15      9   180.00   1.04600   2 ;    C44-   C62-   C60-   C53
     6     24     22     26      9     0.00   0.75312   3 ;    C44-   C62-   C60-   C64
     6     24     22     26      9   180.00   0.83680   1 ;    C44-   C62-   C60-   C64
     6     24     22     26      9   180.00   1.04600   2 ;    C44-   C62-   C60-   C64
     7     17     19     18      9     0.00   0.75312   3 ;    C45-   C55-   C57-   C56
     7     17     19     18      9   180.00   0.83680   1 ;    C45-   C55-   C57-   C56
     7     17     19     18      9   180.00   1.04600   2 ;    C45-   C55-   C57-   C56
     7     17     19     31      9     0.00   0.65084   3 ;    C45-   C55-   C57-     O
     7     17     19    195      9     0.00   0.65084   3 ;    C45-   C55-   C57-  H196
     7     22     15    188      9     0.00   0.66944   3 ;    C45-   C60-   C53-   H99
     7     22     15    189      9     0.00   0.66944   3 ;    C45-   C60-   C53-  H100
     7     22     15    190      9     0.00   0.66944   3 ;    C45-   C60-   C53-  H101
     7     22     24     18      9     0.00   0.75312   3 ;    C45-   C60-   C62-   C56
     7     22     24     18      9   180.00   0.83680   1 ;    C45-   C60-   C62-   C56
     7     22     24     18      9   180.00   1.04600   2 ;    C45-   C60-   C62-   C56
     7     22     24    199      9     0.00   0.66944   3 ;    C45-   C60-   C62-  H198
     7     22     26     13      9     0.00   0.75312   3 ;    C45-   C60-   C64-   C51
     7     22     26     13      9   180.00   0.83680   1 ;    C45-   C60-   C64-   C51
     7     22     26     13      9   180.00   1.04600   2 ;    C45-   C60-   C64-   C51
     7     22     26     23      9     0.00   0.75312   3 ;    C45-   C60-   C64-   C61
     7     22     26     23      9   180.00   0.83680   1 ;    C45-   C60-   C64-   C61
     7     22     26     23      9   180.00   1.04600   2 ;    C45-   C60-   C64-   C61
     7     22     26    200      9     0.00   0.66944   3 ;    C45-   C60-   C64-  H199
     8      4     20     10      9     0.00   0.65084   3 ;    C46-   C42-   C58-   C48
     8      4     20     25      9     0.00   0.75312   3 ;    C46-   C42-   C58-   C63
     8      4     20     25      9   180.00   0.83680   1 ;    C46-   C42-   C58-   C63
     8      4     20     25      9   180.00   1.04600   2 ;    C46-   C42-   C58-   C63
     8      4     20    196      9     0.00   0.66944   3 ;    C46-   C42-   C58-  H197
     8      5     14     25      9     0.00   0.75312   3 ;    C46-   C43-   C52-   C63
     8      5     14     25      9   180.00   0.83680   1 ;    C46-   C43-   C52-   C63
     8      5     14     25      9   180.00   1.04600   2 ;    C46-   C43-   C52-   C63
     8      5     14    186      9     0.00   0.66944   3 ;    C46-   C43-   C52-   H97
     8      5     14    187      9     0.00   0.66944   3 ;    C46-   C43-   C52-   H98
     9     10     20     25      9     0.00   0.00000   0 ;    C47-   C48-   C58-   C63
     9     10     20    196      9     0.00   0.00000   0 ;    C47-   C48-   C58-  H197
     9     10     20    196      9     0.00   4.81160   1 ;    C47-   C48-   C58-  H197
     9     10     20    196      9   180.00   1.58992   3 ;    C47-   C48-   C58-  H197
     9     10     29     16      9     0.00   0.00000   0 ;    C47-   C48-   C67-   C54
     9     10     29     23      9     0.00   0.00000   0 ;    C47-   C48-   C67-   C61
     9     10     29     30      9     0.00   0.00000   0 ;    C47-   C48-   C67-   C68
     9     13     26     22      9     0.00   0.65084   3 ;    C47-   C51-   C64-   C60
     9     13     26     23      9     0.00   0.65084   3 ;    C47-   C51-   C64-   C61
     9     13     26    200      9     0.00   0.65084   3 ;    C47-   C51-   C64-  H199
    10      9     13     26      9     0.00   0.00000   0 ;    C48-   C47-   C51-   C64
    10      9     13    184      9     0.00   0.00000   0 ;    C48-   C47-   C51-   H95
    10      9     13    184      9     0.00   4.81160   1 ;    C48-   C47-   C51-   H95
    10      9     13    184      9   180.00   1.58992   3 ;    C48-   C47-   C51-   H95
    10      9     13    185      9     0.00   0.00000   0 ;    C48-   C47-   C51-   H96
    10      9     13    185      9     0.00   4.81160   1 ;    C48-   C47-   C51-   H96
    10      9     13    185      9   180.00   1.58992   3 ;    C48-   C47-   C51-   H96
    10     20      4    170      9     0.00   0.65084   3 ;    C48-   C58-   C42-   H82
    10     20      4    171      9     0.00   0.65084   3 ;    C48-   C58-   C42-   H83
    10     20     25     11      9     0.00   0.65084   3 ;    C48-   C58-   C63-   C49
    10     20     25     14      9     0.00   0.65084   3 ;    C48-   C58-   C63-   C52
    10     20     25     28      9     0.00   0.65084   3 ;    C48-   C58-   C63-   C66
    10     29     16     11      9     0.00   0.65084   3 ;    C48-   C67-   C54-   C49
    10     29     16    191      9     0.00   0.65084   3 ;    C48-   C67-   C54-  H102
    10     29     16    192      9     0.00   0.65084   3 ;    C48-   C67-   C54-  H103
    10     29     23     21      9     0.00   0.65084   3 ;    C48-   C67-   C61-   C59
    10     29     23     26      9     0.00   0.65084   3 ;    C48-   C67-   C61-   C64
    10     29     23     27      9     0.00   0.65084   3 ;    C48-   C67-   C61-   C65
    10     29     30    204      9     0.00   0.65084   3 ;    C48-   C67-   C68-  H111
    10     29     30    205      9     0.00   0.65084   3 ;    C48-   C67-   C68-  H112
    10     29     30    206      9     0.00   0.65084   3 ;    C48-   C67-   C68-  H113
    11     16     29     23      9     0.00   0.75312   3 ;    C49-   C54-   C67-   C61
    11     16     29     23      9   180.00   0.83680   1 ;    C49-   C54-   C67-   C61
    11     16     29     23      9   180.00   1.04600   2 ;    C49-   C54-   C67-   C61
    11     16     29     30      9     0.00   0.75312   3 ;    C49-   C54-   C67-   C68
    11     16     29     30      9   180.00   0.83680   1 ;    C49-   C54-   C67-   C68
    11     16     29     30      9   180.00   1.04600   2 ;    C49-   C54-   C67-   C68
    11     25     14    186      9     0.00   0.66944   3 ;    C49-   C63-   C52-   H97
    11     25     14    187      9     0.00   0.66944   3 ;    C49-   C63-   C52-   H98
    11     25     20    196      9     0.00   0.66944   3 ;    C49-   C63-   C58-  H197
    11     25     28     32      9   180.00   0.00000   2 ;    C49-   C63-   C66-   O13
    11     25     28     33      9     0.00   0.29288   2 ;    C49-   C63-   C66-    N1
    11     25     28     33      9     0.00   0.41840   4 ;    C49-   C63-   C66-    N1
    12     18      3    167      9     0.00   0.66944   3 ;    C50-   C56-   C41-   H79
    12     18      3    168      9     0.00   0.66944   3 ;    C50-   C56-   C41-   H80
    12     18      3    169      9     0.00   0.66944   3 ;    C50-   C56-   C41-   H81
    12     18     19     17      9     0.00   0.75312   3 ;    C50-   C56-   C57-   C55
    12     18     19     17      9   180.00   0.83680   1 ;    C50-   C56-   C57-   C55
    12     18     19     17      9   180.00   1.04600   2 ;    C50-   C56-   C57-   C55
    12     18     19     31      9     0.00   0.65084   3 ;    C50-   C56-   C57-     O
    12     18     19    195      9     0.00   0.65084   3 ;    C50-   C56-   C57-  H196
    12     18     24     22      9     0.00   0.75312   3 ;    C50-   C56-   C62-   C60
    12     18     24     22      9   180.00   0.83680   1 ;    C50-   C56-   C62-   C60
    12     18     24     22      9   180.00   1.04600   2 ;    C50-   C56-   C62-   C60
    12     18     24    199      9     0.00   0.66944   3 ;    C50-   C56-   C62-  H198
    13      9     10     20      9   180.00   7.94960   1 ;    C51-   C47-   C48-   C58
    13      9     10     20      9   180.00  27.82360   2 ;    C51-   C47-   C48-   C58
    13      9     10     29      9   180.00   7.94960   1 ;    C51-   C47-   C48-   C67
    13      9     10     29      9   180.00  27.82360   2 ;    C51-   C47-   C48-   C67
    13     26     22     15      9     0.00   0.75312   3 ;    C51-   C64-   C60-   C53
    13     26     22     15      9   180.00   0.83680   1 ;    C51-   C64-   C60-   C53
    13     26     22     15      9   180.00   1.04600   2 ;    C51-   C64-   C60-   C53
    13     26     22     24      9     0.00   0.75312   3 ;    C51-   C64-   C60-   C62
    13     26     22     24      9   180.00   0.83680   1 ;    C51-   C64-   C60-   C62
    13     26     22     24      9   180.00   1.04600   2 ;    C51-   C64-   C60-   C62
    13     26     23     21      9     0.00   0.75312   3 ;    C51-   C64-   C61-   C59
    13     26     23     21      9   180.00   0.83680   1 ;    C51-   C64-   C61-   C59
    13     26     23     21      9   180.00   1.04600   2 ;    C51-   C64-   C61-   C59
    13     26     23     27      9     0.00   0.75312   3 ;    C51-   C64-   C61-   C65
    13     26     23     27      9   180.00   0.83680   1 ;    C51-   C64-   C61-   C65
    13     26     23     27      9   180.00   1.04600   2 ;    C51-   C64-   C61-   C65
    13     26     23     29      9     0.00   0.75312   3 ;    C51-   C64-   C61-   C67
    13     26     23     29      9   180.00   0.83680   1 ;    C51-   C64-   C61-   C67
    13     26     23     29      9   180.00   1.04600   2 ;    C51-   C64-   C61-   C67
    14     25     11     16      9     0.00   0.75312   3 ;    C52-   C63-   C49-   C54
    14     25     11     16      9   180.00   0.83680   1 ;    C52-   C63-   C49-   C54
    14     25     11     16      9   180.00   1.04600   2 ;    C52-   C63-   C49-   C54
    14     25     11    179      9     0.00   0.66944   3 ;    C52-   C63-   C49-   H90
    14     25     11    180      9     0.00   0.66944   3 ;    C52-   C63-   C49-   H91
    14     25     20    196      9     0.00   0.66944   3 ;    C52-   C63-   C58-  H197
    14     25     28     32      9   180.00   0.00000   2 ;    C52-   C63-   C66-   O13
    14     25     28     33      9     0.00   0.29288   2 ;    C52-   C63-   C66-    N1
    14     25     28     33      9     0.00   0.41840   4 ;    C52-   C63-   C66-    N1
    15     22      7     17      9     0.00   0.75312   3 ;    C53-   C60-   C45-   C55
    15     22      7     17      9   180.00   0.83680   1 ;    C53-   C60-   C45-   C55
    15     22      7     17      9   180.00   1.04600   2 ;    C53-   C60-   C45-   C55
    15     22      7    176      9     0.00   0.66944   3 ;    C53-   C60-   C45-   H88
    15     22      7    177      9     0.00   0.66944   3 ;    C53-   C60-   C45-   H89
    15     22     24     18      9     0.00   0.75312   3 ;    C53-   C60-   C62-   C56
    15     22     24     18      9   180.00   0.83680   1 ;    C53-   C60-   C62-   C56
    15     22     24     18      9   180.00   1.04600   2 ;    C53-   C60-   C62-   C56
    15     22     24    199      9     0.00   0.66944   3 ;    C53-   C60-   C62-  H198
    15     22     26     23      9     0.00   0.75312   3 ;    C53-   C60-   C64-   C61
    15     22     26     23      9   180.00   0.83680   1 ;    C53-   C60-   C64-   C61
    15     22     26     23      9   180.00   1.04600   2 ;    C53-   C60-   C64-   C61
    15     22     26    200      9     0.00   0.66944   3 ;    C53-   C60-   C64-  H199
    16     11     25     20      9     0.00   0.75312   3 ;    C54-   C49-   C63-   C58
    16     11     25     20      9   180.00   0.83680   1 ;    C54-   C49-   C63-   C58
    16     11     25     20      9   180.00   1.04600   2 ;    C54-   C49-   C63-   C58
    16     11     25     28      9     0.00   0.65084   3 ;    C54-   C49-   C63-   C66
    16     29     10     20      9     0.00   0.00000   0 ;    C54-   C67-   C48-   C58
    16     29     23     21      9     0.00   0.75312   3 ;    C54-   C67-   C61-   C59
    16     29     23     21      9   180.00   0.83680   1 ;    C54-   C67-   C61-   C59
    16     29     23     21      9   180.00   1.04600   2 ;    C54-   C67-   C61-   C59
    16     29     23     26      9     0.00   0.75312   3 ;    C54-   C67-   C61-   C64
    16     29     23     26      9   180.00   0.83680   1 ;    C54-   C67-   C61-   C64
    16     29     23     26      9   180.00   1.04600   2 ;    C54-   C67-   C61-   C64
    16     29     23     27      9     0.00   0.75312   3 ;    C54-   C67-   C61-   C65
    16     29     23     27      9   180.00   0.83680   1 ;    C54-   C67-   C61-   C65
    16     29     23     27      9   180.00   1.04600   2 ;    C54-   C67-   C61-   C65
    16     29     30    204      9     0.00   0.66944   3 ;    C54-   C67-   C68-  H111
    16     29     30    205      9     0.00   0.66944   3 ;    C54-   C67-   C68-  H112
    16     29     30    206      9     0.00   0.66944   3 ;    C54-   C67-   C68-  H113
    17      7     22     24      9     0.00   0.75312   3 ;    C55-   C45-   C60-   C62
    17      7     22     24      9   180.00   0.83680   1 ;    C55-   C45-   C60-   C62
    17      7     22     24      9   180.00   1.04600   2 ;    C55-   C45-   C60-   C62
    17      7     22     26      9     0.00   0.75312   3 ;    C55-   C45-   C60-   C64
    17      7     22     26      9   180.00   0.83680   1 ;    C55-   C45-   C60-   C64
    17      7     22     26      9   180.00   1.04600   2 ;    C55-   C45-   C60-   C64
    17     19     18     24      9     0.00   0.75312   3 ;    C55-   C57-   C56-   C62
    17     19     18     24      9   180.00   0.83680   1 ;    C55-   C57-   C56-   C62
    17     19     18     24      9   180.00   1.04600   2 ;    C55-   C57-   C56-   C62
    17     19     31    207      9     0.00   0.66944   3 ;    C55-   C57-     O-    HO
    17     19     31    207      9     0.00   1.04600   1 ;    C55-   C57-     O-    HO
    18     19     17    193      9     0.00   0.66944   3 ;    C56-   C57-   C55-  H104
    18     19     17    194      9     0.00   0.66944   3 ;    C56-   C57-   C55-  H105
    18     19     31    207      9     0.00   0.66944   3 ;    C56-   C57-     O-    HO
    18     19     31    207      9     0.00   1.04600   1 ;    C56-   C57-     O-    HO
    18     24      6     21      9     0.00   0.75312   3 ;    C56-   C62-   C44-   C59
    18     24      6     21      9   180.00   0.83680   1 ;    C56-   C62-   C44-   C59
    18     24      6     21      9   180.00   1.04600   2 ;    C56-   C62-   C44-   C59
    18     24      6    174      9     0.00   0.66944   3 ;    C56-   C62-   C44-   H86
    18     24      6    175      9     0.00   0.66944   3 ;    C56-   C62-   C44-   H87
    18     24     22     26      9     0.00   0.75312   3 ;    C56-   C62-   C60-   C64
    18     24     22     26      9   180.00   0.83680   1 ;    C56-   C62-   C60-   C64
    18     24     22     26      9   180.00   1.04600   2 ;    C56-   C62-   C60-   C64
    19     17      7     22      9     0.00   0.75312   3 ;    C57-   C55-   C45-   C60
    19     17      7     22      9   180.00   0.83680   1 ;    C57-   C55-   C45-   C60
    19     17      7     22      9   180.00   1.04600   2 ;    C57-   C55-   C45-   C60
    19     17      7    176      9     0.00   0.66944   3 ;    C57-   C55-   C45-   H88
    19     17      7    177      9     0.00   0.66944   3 ;    C57-   C55-   C45-   H89
    19     18      3    167      9     0.00   0.66944   3 ;    C57-   C56-   C41-   H79
    19     18      3    168      9     0.00   0.66944   3 ;    C57-   C56-   C41-   H80
    19     18      3    169      9     0.00   0.66944   3 ;    C57-   C56-   C41-   H81
    19     18     12    181      9     0.00   0.66944   3 ;    C57-   C56-   C50-   H92
    19     18     12    182      9     0.00   0.66944   3 ;    C57-   C56-   C50-   H93
    19     18     12    183      9     0.00   0.66944   3 ;    C57-   C56-   C50-   H94
    19     18     24     22      9     0.00   0.75312   3 ;    C57-   C56-   C62-   C60
    19     18     24     22      9   180.00   0.83680   1 ;    C57-   C56-   C62-   C60
    19     18     24     22      9   180.00   1.04600   2 ;    C57-   C56-   C62-   C60
    19     18     24    199      9     0.00   0.66944   3 ;    C57-   C56-   C62-  H198
    20     10      9    178      9   180.00  27.82360   2 ;    C58-   C48-   C47-   HXT
    20     10     29     23      9     0.00   0.00000   0 ;    C58-   C48-   C67-   C61
    20     10     29     30      9     0.00   0.00000   0 ;    C58-   C48-   C67-   C68
    20     25     11    179      9     0.00   0.66944   3 ;    C58-   C63-   C49-   H90
    20     25     11    180      9     0.00   0.66944   3 ;    C58-   C63-   C49-   H91
    20     25     14    186      9     0.00   0.66944   3 ;    C58-   C63-   C52-   H97
    20     25     14    187      9     0.00   0.66944   3 ;    C58-   C63-   C52-   H98
    20     25     28     32      9   180.00   0.00000   2 ;    C58-   C63-   C66-   O13
    20     25     28     33      9     0.00   0.29288   2 ;    C58-   C63-   C66-    N1
    20     25     28     33      9     0.00   0.41840   4 ;    C58-   C63-   C66-    N1
    21      6     24     22      9     0.00   0.75312   3 ;    C59-   C44-   C62-   C60
    21      6     24     22      9   180.00   0.83680   1 ;    C59-   C44-   C62-   C60
    21      6     24     22      9   180.00   1.04600   2 ;    C59-   C44-   C62-   C60
    21      6     24    199      9     0.00   0.66944   3 ;    C59-   C44-   C62-  H198
    21     23     26     22      9     0.00   0.75312   3 ;    C59-   C61-   C64-   C60
    21     23     26     22      9   180.00   0.83680   1 ;    C59-   C61-   C64-   C60
    21     23     26     22      9   180.00   1.04600   2 ;    C59-   C61-   C64-   C60
    21     23     26    200      9     0.00   0.66944   3 ;    C59-   C61-   C64-  H199
    21     23     27    201      9     0.00   0.66944   3 ;    C59-   C61-   C65-  H108
    21     23     27    202      9     0.00   0.66944   3 ;    C59-   C61-   C65-  H109
    21     23     27    203      9     0.00   0.66944   3 ;    C59-   C61-   C65-  H110
    21     23     29     30      9     0.00   0.75312   3 ;    C59-   C61-   C67-   C68
    21     23     29     30      9   180.00   0.83680   1 ;    C59-   C61-   C67-   C68
    21     23     29     30      9   180.00   1.04600   2 ;    C59-   C61-   C67-   C68
    22      7     17    193      9     0.00   0.66944   3 ;    C60-   C45-   C55-  H104
    22      7     17    194      9     0.00   0.66944   3 ;    C60-   C45-   C55-  H105
    22     24      6    174      9     0.00   0.66944   3 ;    C60-   C62-   C44-   H86
    22     24      6    175      9     0.00   0.66944   3 ;    C60-   C62-   C44-   H87
    22     26     13    184      9     0.00   0.66944   3 ;    C60-   C64-   C51-   H95
    22     26     13    185      9     0.00   0.66944   3 ;    C60-   C64-   C51-   H96
    22     26     23     27      9     0.00   0.75312   3 ;    C60-   C64-   C61-   C65
    22     26     23     27      9   180.00   0.83680   1 ;    C60-   C64-   C61-   C65
    22     26     23     27      9   180.00   1.04600   2 ;    C60-   C64-   C61-   C65
    22     26     23     29      9     0.00   0.75312   3 ;    C60-   C64-   C61-   C67
    22     26     23     29      9   180.00   0.83680   1 ;    C60-   C64-   C61-   C67
    22     26     23     29      9   180.00   1.04600   2 ;    C60-   C64-   C61-   C67
    23     21      6     24      9     0.00   0.75312   3 ;    C61-   C59-   C44-   C62
    23     21      6     24      9   180.00   0.83680   1 ;    C61-   C59-   C44-   C62
    23     21      6     24      9   180.00   1.04600   2 ;    C61-   C59-   C44-   C62
    23     21      6    174      9     0.00   0.66944   3 ;    C61-   C59-   C44-   H86
    23     21      6    175      9     0.00   0.66944   3 ;    C61-   C59-   C44-   H87
    23     26     13    184      9     0.00   0.66944   3 ;    C61-   C64-   C51-   H95
    23     26     13    185      9     0.00   0.66944   3 ;    C61-   C64-   C51-   H96
    23     26     22     24      9     0.00   0.75312   3 ;    C61-   C64-   C60-   C62
    23     26     22     24      9   180.00   0.83680   1 ;    C61-   C64-   C60-   C62
    23     26     22     24      9   180.00   1.04600   2 ;    C61-   C64-   C60-   C62
    23     29     16    191      9     0.00   0.66944   3 ;    C61-   C67-   C54-  H102
    23     29     16    192      9     0.00   0.66944   3 ;    C61-   C67-   C54-  H103
    23     29     30    204      9     0.00   0.66944   3 ;    C61-   C67-   C68-  H111
    23     29     30    205      9     0.00   0.66944   3 ;    C61-   C67-   C68-  H112
    23     29     30    206      9     0.00   0.66944   3 ;    C61-   C67-   C68-  H113
    24      6     21    197      9     0.00   0.66944   3 ;    C62-   C44-   C59-  H106
    24      6     21    198      9     0.00   0.66944   3 ;    C62-   C44-   C59-  H107
    24     18      3    167      9     0.00   0.66944   3 ;    C62-   C56-   C41-   H79
    24     18      3    168      9     0.00   0.66944   3 ;    C62-   C56-   C41-   H80
    24     18      3    169      9     0.00   0.66944   3 ;    C62-   C56-   C41-   H81
    24     18     12    181      9     0.00   0.66944   3 ;    C62-   C56-   C50-   H92
    24     18     12    182      9     0.00   0.66944   3 ;    C62-   C56-   C50-   H93
    24     18     12    183      9     0.00   0.66944   3 ;    C62-   C56-   C50-   H94
    24     18     19     31      9     0.00   0.65084   3 ;    C62-   C56-   C57-     O
    24     18     19    195      9     0.00   0.65084   3 ;    C62-   C56-   C57-  H196
    24     22      7    176      9     0.00   0.66944   3 ;    C62-   C60-   C45-   H88
    24     22      7    177      9     0.00   0.66944   3 ;    C62-   C60-   C45-   H89
    24     22     15    188      9     0.00   0.66944   3 ;    C62-   C60-   C53-   H99
    24     22     15    189      9     0.00   0.66944   3 ;    C62-   C60-   C53-  H100
    24     22     15    190      9     0.00   0.66944   3 ;    C62-   C60-   C53-  H101
    24     22     26    200      9     0.00   0.66944   3 ;    C62-   C60-   C64-  H199
    25     11     16     29      9     0.00   0.75312   3 ;    C63-   C49-   C54-   C67
    25     11     16     29      9   180.00   0.83680   1 ;    C63-   C49-   C54-   C67
    25     11     16     29      9   180.00   1.04600   2 ;    C63-   C49-   C54-   C67
    25     11     16    191      9     0.00   0.66944   3 ;    C63-   C49-   C54-  H102
    25     11     16    192      9     0.00   0.66944   3 ;    C63-   C49-   C54-  H103
    25     14      5    172      9     0.00   0.66944   3 ;    C63-   C52-   C43-   H84
    25     14      5    173      9     0.00   0.66944   3 ;    C63-   C52-   C43-   H85
    25     20      4    170      9     0.00   0.66944   3 ;    C63-   C58-   C42-   H82
    25     20      4    171      9     0.00   0.66944   3 ;    C63-   C58-   C42-   H83
    25     20     10     29      9     0.00   0.00000   0 ;    C63-   C58-   C48-   C67
    25     28     33    121      9     0.00   0.00000   0 ;    C63-   C66-    N1-   C14
    25     28     33    121      9   180.00   6.27600   1 ;    C63-   C66-    N1-   C14
    25     28     33    324      9   180.00  10.46000   2 ;    C63-   C66-    N1-   H24
    26     13      9    178      9     0.00   0.00000   0 ;    C64-   C51-   C47-   HXT
    26     22      7    176      9     0.00   0.66944   3 ;    C64-   C60-   C45-   H88
    26     22      7    177      9     0.00   0.66944   3 ;    C64-   C60-   C45-   H89
    26     22     15    188      9     0.00   0.66944   3 ;    C64-   C60-   C53-   H99
    26     22     15    189      9     0.00   0.66944   3 ;    C64-   C60-   C53-  H100
    26     22     15    190      9     0.00   0.66944   3 ;    C64-   C60-   C53-  H101
    26     22     24    199      9     0.00   0.66944   3 ;    C64-   C60-   C62-  H198
    26     23     21    197      9     0.00   0.66944   3 ;    C64-   C61-   C59-  H106
    26     23     21    198      9     0.00   0.66944   3 ;    C64-   C61-   C59-  H107
    26     23     27    201      9     0.00   0.66944   3 ;    C64-   C61-   C65-  H108
    26     23     27    202      9     0.00   0.66944   3 ;    C64-   C61-   C65-  H109
    26     23     27    203      9     0.00   0.66944   3 ;    C64-   C61-   C65-  H110
    26     23     29     30      9     0.00   0.75312   3 ;    C64-   C61-   C67-   C68
    26     23     29     30      9   180.00   0.83680   1 ;    C64-   C61-   C67-   C68
    26     23     29     30      9   180.00   1.04600   2 ;    C64-   C61-   C67-   C68
    27     23     21    197      9     0.00   0.66944   3 ;    C65-   C61-   C59-  H106
    27     23     21    198      9     0.00   0.66944   3 ;    C65-   C61-   C59-  H107
    27     23     26    200      9     0.00   0.66944   3 ;    C65-   C61-   C64-  H199
    27     23     29     30      9     0.00   0.75312   3 ;    C65-   C61-   C67-   C68
    27     23     29     30      9   180.00   0.83680   1 ;    C65-   C61-   C67-   C68
    27     23     29     30      9   180.00   1.04600   2 ;    C65-   C61-   C67-   C68
    28     25     11    179      9     0.00   0.65084   3 ;    C66-   C63-   C49-   H90
    28     25     11    180      9     0.00   0.65084   3 ;    C66-   C63-   C49-   H91
    28     25     14    186      9     0.00   0.65084   3 ;    C66-   C63-   C52-   H97
    28     25     14    187      9     0.00   0.65084   3 ;    C66-   C63-   C52-   H98
    28     25     20    196      9     0.00   0.65084   3 ;    C66-   C63-   C58-  H197
    28     33    121    122      9     0.00   0.00000   0 ;    C66-    N1-   C14-   C15
    28     33    121    122      9     0.00   2.21752   1 ;    C66-    N1-   C14-   C15
    28     33    121    122      9   180.00   0.62760   3 ;    C66-    N1-   C14-   C15
    28     33    121    122      9   180.00   2.09200   4 ;    C66-    N1-   C14-   C15
    28     33    121    325      9     0.00   0.00000   0 ;    C66-    N1-   C14-   H25
    28     33    121    326      9     0.00   0.00000   0 ;    C66-    N1-   C14-   H26
    29     10      9    178      9   180.00  27.82360   2 ;    C67-   C48-   C47-   HXT
    29     10     20    196      9     0.00   0.00000   0 ;    C67-   C48-   C58-  H197
    29     16     11    179      9     0.00   0.66944   3 ;    C67-   C54-   C49-   H90
    29     16     11    180      9     0.00   0.66944   3 ;    C67-   C54-   C49-   H91
    29     23     21    197      9     0.00   0.66944   3 ;    C67-   C61-   C59-  H106
    29     23     21    198      9     0.00   0.66944   3 ;    C67-   C61-   C59-  H107
    29     23     26    200      9     0.00   0.66944   3 ;    C67-   C61-   C64-  H199
    29     23     27    201      9     0.00   0.66944   3 ;    C67-   C61-   C65-  H108
    29     23     27    202      9     0.00   0.66944   3 ;    C67-   C61-   C65-  H109
    29     23     27    203      9     0.00   0.66944   3 ;    C67-   C61-   C65-  H110
    30     29     16    191      9     0.00   0.66944   3 ;    C68-   C67-   C54-  H102
    30     29     16    192      9     0.00   0.66944   3 ;    C68-   C67-   C54-  H103
    31     19     17    193      9     0.00   0.00000   0 ;      O-   C57-   C55-  H104
    31     19     17    193      9     0.00   1.04600   1 ;      O-   C57-   C55-  H104
    31     19     17    194      9     0.00   0.00000   0 ;      O-   C57-   C55-  H105
    31     19     17    194      9     0.00   1.04600   1 ;      O-   C57-   C55-  H105
    32     28     33    121      9   180.00  10.46000   2 ;    O13-   C66-    N1-   C14
    32     28     33    324      9     0.00   8.36800   1 ;    O13-   C66-    N1-   H24
    32     28     33    324      9   180.00  10.46000   2 ;    O13-   C66-    N1-   H24
    33    121    122    123      9     0.00   0.65084   3 ;     N1-   C14-   C15-    O5
    33    121    122    327      9     0.00   0.65084   3 ;     N1-   C14-   C15-   H27
    33    121    122    328      9     0.00   0.65084   3 ;     N1-   C14-   C15-   H28
    34     41     35    211      9     0.00   0.66944   3 ;    C69-   C76-   C70-  H117
    34     41     35    212      9     0.00   0.66944   3 ;    C69-   C76-   C70-  H118
    34     41     35    213      9     0.00   0.66944   3 ;    C69-   C76-   C70-  H119
    34     41     37     53      9     0.00   0.75312   3 ;    C69-   C76-   C72-   C88
    34     41     37     53      9   180.00   0.83680   1 ;    C69-   C76-   C72-   C88
    34     41     37     53      9   180.00   1.04600   2 ;    C69-   C76-   C72-   C88
    34     41     37    217      9     0.00   0.66944   3 ;    C69-   C76-   C72-  H123
    34     41     37    218      9     0.00   0.66944   3 ;    C69-   C76-   C72-  H124
    34     41     38     47      9     0.00   0.75312   3 ;    C69-   C76-   C73-   C82
    34     41     38     47      9   180.00   0.83680   1 ;    C69-   C76-   C73-   C82
    34     41     38     47      9   180.00   1.04600   2 ;    C69-   C76-   C73-   C82
    34     41     38    219      9     0.00   0.66944   3 ;    C69-   C76-   C73-  H125
    34     41     38    220      9     0.00   0.66944   3 ;    C69-   C76-   C73-  H126
    35     41     34    208      9     0.00   0.66944   3 ;    C70-   C76-   C69-  H114
    35     41     34    209      9     0.00   0.66944   3 ;    C70-   C76-   C69-  H115
    35     41     34    210      9     0.00   0.66944   3 ;    C70-   C76-   C69-  H116
    35     41     37     53      9     0.00   0.75312   3 ;    C70-   C76-   C72-   C88
    35     41     37     53      9   180.00   0.83680   1 ;    C70-   C76-   C72-   C88
    35     41     37     53      9   180.00   1.04600   2 ;    C70-   C76-   C72-   C88
    35     41     37    217      9     0.00   0.66944   3 ;    C70-   C76-   C72-  H123
    35     41     37    218      9     0.00   0.66944   3 ;    C70-   C76-   C72-  H124
    35     41     38     47      9     0.00   0.75312   3 ;    C70-   C76-   C73-   C82
    35     41     38     47      9   180.00   0.83680   1 ;    C70-   C76-   C73-   C82
    35     41     38     47      9   180.00   1.04600   2 ;    C70-   C76-   C73-   C82
    35     41     38    219      9     0.00   0.66944   3 ;    C70-   C76-   C73-  H125
    35     41     38    220      9     0.00   0.66944   3 ;    C70-   C76-   C73-  H126
    36     51     45    227      9     0.00   0.66944   3 ;    C71-   C86-   C80-  H133
    36     51     45    228      9     0.00   0.66944   3 ;    C71-   C86-   C80-  H134
    36     51     45    229      9     0.00   0.66944   3 ;    C71-   C86-   C80-  H135
    36     51     52     50      9     0.00   0.75312   3 ;    C71-   C86-   C87-   C85
    36     51     52     50      9   180.00   0.83680   1 ;    C71-   C86-   C87-   C85
    36     51     52     50      9   180.00   1.04600   2 ;    C71-   C86-   C87-   C85
    36     51     52     64      9     0.00   0.65084   3 ;    C71-   C86-   C87-   O14
    36     51     52    241      9     0.00   0.65084   3 ;    C71-   C86-   C87-  H200
    36     51     57     39      9     0.00   0.75312   3 ;    C71-   C86-   C92-   C74
    36     51     57     39      9   180.00   0.83680   1 ;    C71-   C86-   C92-   C74
    36     51     57     39      9   180.00   1.04600   2 ;    C71-   C86-   C92-   C74
    36     51     57     55      9     0.00   0.75312   3 ;    C71-   C86-   C92-   C90
    36     51     57     55      9   180.00   0.83680   1 ;    C71-   C86-   C92-   C90
    36     51     57     55      9   180.00   1.04600   2 ;    C71-   C86-   C92-   C90
    36     51     57    245      9     0.00   0.66944   3 ;    C71-   C86-   C92-  H202
    37     41     34    208      9     0.00   0.66944   3 ;    C72-   C76-   C69-  H114
    37     41     34    209      9     0.00   0.66944   3 ;    C72-   C76-   C69-  H115
    37     41     34    210      9     0.00   0.66944   3 ;    C72-   C76-   C69-  H116
    37     41     35    211      9     0.00   0.66944   3 ;    C72-   C76-   C70-  H117
    37     41     35    212      9     0.00   0.66944   3 ;    C72-   C76-   C70-  H118
    37     41     35    213      9     0.00   0.66944   3 ;    C72-   C76-   C70-  H119
    37     41     38     47      9     0.00   0.75312   3 ;    C72-   C76-   C73-   C82
    37     41     38     47      9   180.00   0.83680   1 ;    C72-   C76-   C73-   C82
    37     41     38     47      9   180.00   1.04600   2 ;    C72-   C76-   C73-   C82
    37     41     38    219      9     0.00   0.66944   3 ;    C72-   C76-   C73-  H125
    37     41     38    220      9     0.00   0.66944   3 ;    C72-   C76-   C73-  H126
    37     53     43     42      9     0.00   0.00000   0 ;    C72-   C88-   C78-   C77
    37     53     43     62      9     0.00   0.00000   0 ;    C72-   C88-   C78-   C97
    37     53     58     44      9     0.00   0.75312   3 ;    C72-   C88-   C93-   C79
    37     53     58     44      9   180.00   0.83680   1 ;    C72-   C88-   C93-   C79
    37     53     58     44      9   180.00   1.04600   2 ;    C72-   C88-   C93-   C79
    37     53     58     47      9     0.00   0.75312   3 ;    C72-   C88-   C93-   C82
    37     53     58     47      9   180.00   0.83680   1 ;    C72-   C88-   C93-   C82
    37     53     58     47      9   180.00   1.04600   2 ;    C72-   C88-   C93-   C82
    37     53     58     61      9     0.00   0.65084   3 ;    C72-   C88-   C93-   C96
    38     41     34    208      9     0.00   0.66944   3 ;    C73-   C76-   C69-  H114
    38     41     34    209      9     0.00   0.66944   3 ;    C73-   C76-   C69-  H115
    38     41     34    210      9     0.00   0.66944   3 ;    C73-   C76-   C69-  H116
    38     41     35    211      9     0.00   0.66944   3 ;    C73-   C76-   C70-  H117
    38     41     35    212      9     0.00   0.66944   3 ;    C73-   C76-   C70-  H118
    38     41     35    213      9     0.00   0.66944   3 ;    C73-   C76-   C70-  H119
    38     41     37     53      9     0.00   0.75312   3 ;    C73-   C76-   C72-   C88
    38     41     37     53      9   180.00   0.83680   1 ;    C73-   C76-   C72-   C88
    38     41     37     53      9   180.00   1.04600   2 ;    C73-   C76-   C72-   C88
    38     41     37    217      9     0.00   0.66944   3 ;    C73-   C76-   C72-  H123
    38     41     37    218      9     0.00   0.66944   3 ;    C73-   C76-   C72-  H124
    38     47     58     44      9     0.00   0.75312   3 ;    C73-   C82-   C93-   C79
    38     47     58     44      9   180.00   0.83680   1 ;    C73-   C82-   C93-   C79
    38     47     58     44      9   180.00   1.04600   2 ;    C73-   C82-   C93-   C79
    38     47     58     53      9     0.00   0.75312   3 ;    C73-   C82-   C93-   C88
    38     47     58     53      9   180.00   0.83680   1 ;    C73-   C82-   C93-   C88
    38     47     58     53      9   180.00   1.04600   2 ;    C73-   C82-   C93-   C88
    38     47     58     61      9     0.00   0.65084   3 ;    C73-   C82-   C93-   C96
    39     54     56     59      9     0.00   0.75312   3 ;    C74-   C89-   C91-   C94
    39     54     56     59      9   180.00   0.83680   1 ;    C74-   C89-   C91-   C94
    39     54     56     59      9   180.00   1.04600   2 ;    C74-   C89-   C91-   C94
    39     54     56     60      9     0.00   0.75312   3 ;    C74-   C89-   C91-   C95
    39     54     56     60      9   180.00   0.83680   1 ;    C74-   C89-   C91-   C95
    39     54     56     60      9   180.00   1.04600   2 ;    C74-   C89-   C91-   C95
    39     54     56     62      9     0.00   0.75312   3 ;    C74-   C89-   C91-   C97
    39     54     56     62      9   180.00   0.83680   1 ;    C74-   C89-   C91-   C97
    39     54     56     62      9   180.00   1.04600   2 ;    C74-   C89-   C91-   C97
    39     57     51     45      9     0.00   0.75312   3 ;    C74-   C92-   C86-   C80
    39     57     51     45      9   180.00   0.83680   1 ;    C74-   C92-   C86-   C80
    39     57     51     45      9   180.00   1.04600   2 ;    C74-   C92-   C86-   C80
    39     57     51     52      9     0.00   0.75312   3 ;    C74-   C92-   C86-   C87
    39     57     51     52      9   180.00   0.83680   1 ;    C74-   C92-   C86-   C87
    39     57     51     52      9   180.00   1.04600   2 ;    C74-   C92-   C86-   C87
    39     57     55     40      9     0.00   0.75312   3 ;    C74-   C92-   C90-   C75
    39     57     55     40      9   180.00   0.83680   1 ;    C74-   C92-   C90-   C75
    39     57     55     40      9   180.00   1.04600   2 ;    C74-   C92-   C90-   C75
    39     57     55     48      9     0.00   0.75312   3 ;    C74-   C92-   C90-   C83
    39     57     55     48      9   180.00   0.83680   1 ;    C74-   C92-   C90-   C83
    39     57     55     48      9   180.00   1.04600   2 ;    C74-   C92-   C90-   C83
    39     57     55     59      9     0.00   0.75312   3 ;    C74-   C92-   C90-   C94
    39     57     55     59      9   180.00   0.83680   1 ;    C74-   C92-   C90-   C94
    39     57     55     59      9   180.00   1.04600   2 ;    C74-   C92-   C90-   C94
    40     50     52     51      9     0.00   0.75312   3 ;    C75-   C85-   C87-   C86
    40     50     52     51      9   180.00   0.83680   1 ;    C75-   C85-   C87-   C86
    40     50     52     51      9   180.00   1.04600   2 ;    C75-   C85-   C87-   C86
    40     50     52     64      9     0.00   0.65084   3 ;    C75-   C85-   C87-   O14
    40     50     52    241      9     0.00   0.65084   3 ;    C75-   C85-   C87-  H200
    40     55     48    234      9     0.00   0.66944   3 ;    C75-   C90-   C83-  H140
    40     55     48    235      9     0.00   0.66944   3 ;    C75-   C90-   C83-  H141
    40     55     48    236      9     0.00   0.66944   3 ;    C75-   C90-   C83-  H142
    40     55     57     51      9     0.00   0.75312   3 ;    C75-   C90-   C92-   C86
    40     55     57     51      9   180.00   0.83680   1 ;    C75-   C90-   C92-   C86
    40     55     57     51      9   180.00   1.04600   2 ;    C75-   C90-   C92-   C86
    40     55     57    245      9     0.00   0.66944   3 ;    C75-   C90-   C92-  H202
    40     55     59     46      9     0.00   0.75312   3 ;    C75-   C90-   C94-   C81
    40     55     59     46      9   180.00   0.83680   1 ;    C75-   C90-   C94-   C81
    40     55     59     46      9   180.00   1.04600   2 ;    C75-   C90-   C94-   C81
    40     55     59     56      9     0.00   0.75312   3 ;    C75-   C90-   C94-   C91
    40     55     59     56      9   180.00   0.83680   1 ;    C75-   C90-   C94-   C91
    40     55     59     56      9   180.00   1.04600   2 ;    C75-   C90-   C94-   C91
    40     55     59    246      9     0.00   0.66944   3 ;    C75-   C90-   C94-  H203
    41     37     53     43      9     0.00   0.65084   3 ;    C76-   C72-   C88-   C78
    41     37     53     58      9     0.00   0.75312   3 ;    C76-   C72-   C88-   C93
    41     37     53     58      9   180.00   0.83680   1 ;    C76-   C72-   C88-   C93
    41     37     53     58      9   180.00   1.04600   2 ;    C76-   C72-   C88-   C93
    41     37     53    242      9     0.00   0.66944   3 ;    C76-   C72-   C88-  H201
    41     38     47     58      9     0.00   0.75312   3 ;    C76-   C73-   C82-   C93
    41     38     47     58      9   180.00   0.83680   1 ;    C76-   C73-   C82-   C93
    41     38     47     58      9   180.00   1.04600   2 ;    C76-   C73-   C82-   C93
    41     38     47    232      9     0.00   0.66944   3 ;    C76-   C73-   C82-  H138
    41     38     47    233      9     0.00   0.66944   3 ;    C76-   C73-   C82-  H139
    42     43     53     58      9     0.00   0.00000   0 ;    C77-   C78-   C88-   C93
    42     43     53    242      9     0.00   0.00000   0 ;    C77-   C78-   C88-  H201
    42     43     53    242      9     0.00   4.81160   1 ;    C77-   C78-   C88-  H201
    42     43     53    242      9   180.00   1.58992   3 ;    C77-   C78-   C88-  H201
    42     43     62     49      9     0.00   0.00000   0 ;    C77-   C78-   C97-   C84
    42     43     62     56      9     0.00   0.00000   0 ;    C77-   C78-   C97-   C91
    42     43     62     63      9     0.00   0.00000   0 ;    C77-   C78-   C97-   C98
    42     46     59     55      9     0.00   0.65084   3 ;    C77-   C81-   C94-   C90
    42     46     59     56      9     0.00   0.65084   3 ;    C77-   C81-   C94-   C91
    42     46     59    246      9     0.00   0.65084   3 ;    C77-   C81-   C94-  H203
    43     42     46     59      9     0.00   0.00000   0 ;    C78-   C77-   C81-   C94
    43     42     46    230      9     0.00   0.00000   0 ;    C78-   C77-   C81-  H136
    43     42     46    230      9     0.00   4.81160   1 ;    C78-   C77-   C81-  H136
    43     42     46    230      9   180.00   1.58992   3 ;    C78-   C77-   C81-  H136
    43     42     46    231      9     0.00   0.00000   0 ;    C78-   C77-   C81-  H137
    43     42     46    231      9     0.00   4.81160   1 ;    C78-   C77-   C81-  H137
    43     42     46    231      9   180.00   1.58992   3 ;    C78-   C77-   C81-  H137
    43     53     37    217      9     0.00   0.65084   3 ;    C78-   C88-   C72-  H123
    43     53     37    218      9     0.00   0.65084   3 ;    C78-   C88-   C72-  H124
    43     53     58     44      9     0.00   0.65084   3 ;    C78-   C88-   C93-   C79
    43     53     58     47      9     0.00   0.65084   3 ;    C78-   C88-   C93-   C82
    43     53     58     61      9     0.00   0.65084   3 ;    C78-   C88-   C93-   C96
    43     62     49     44      9     0.00   0.65084   3 ;    C78-   C97-   C84-   C79
    43     62     49    237      9     0.00   0.65084   3 ;    C78-   C97-   C84-  H143
    43     62     49    238      9     0.00   0.65084   3 ;    C78-   C97-   C84-  H144
    43     62     56     54      9     0.00   0.65084   3 ;    C78-   C97-   C91-   C89
    43     62     56     59      9     0.00   0.65084   3 ;    C78-   C97-   C91-   C94
    43     62     56     60      9     0.00   0.65084   3 ;    C78-   C97-   C91-   C95
    43     62     63    250      9     0.00   0.65084   3 ;    C78-   C97-   C98-  H152
    43     62     63    251      9     0.00   0.65084   3 ;    C78-   C97-   C98-  H153
    43     62     63    252      9     0.00   0.65084   3 ;    C78-   C97-   C98-  H154
    44     49     62     56      9     0.00   0.75312   3 ;    C79-   C84-   C97-   C91
    44     49     62     56      9   180.00   0.83680   1 ;    C79-   C84-   C97-   C91
    44     49     62     56      9   180.00   1.04600   2 ;    C79-   C84-   C97-   C91
    44     49     62     63      9     0.00   0.75312   3 ;    C79-   C84-   C97-   C98
    44     49     62     63      9   180.00   0.83680   1 ;    C79-   C84-   C97-   C98
    44     49     62     63      9   180.00   1.04600   2 ;    C79-   C84-   C97-   C98
    44     58     47    232      9     0.00   0.66944   3 ;    C79-   C93-   C82-  H138
    44     58     47    233      9     0.00   0.66944   3 ;    C79-   C93-   C82-  H139
    44     58     53    242      9     0.00   0.66944   3 ;    C79-   C93-   C88-  H201
    44     58     61     65      9   180.00   0.00000   2 ;    C79-   C93-   C96-   O15
    44     58     61     66      9     0.00   0.29288   2 ;    C79-   C93-   C96-    N2
    44     58     61     66      9     0.00   0.41840   4 ;    C79-   C93-   C96-    N2
    45     51     36    214      9     0.00   0.66944   3 ;    C80-   C86-   C71-  H120
    45     51     36    215      9     0.00   0.66944   3 ;    C80-   C86-   C71-  H121
    45     51     36    216      9     0.00   0.66944   3 ;    C80-   C86-   C71-  H122
    45     51     52     50      9     0.00   0.75312   3 ;    C80-   C86-   C87-   C85
    45     51     52     50      9   180.00   0.83680   1 ;    C80-   C86-   C87-   C85
    45     51     52     50      9   180.00   1.04600   2 ;    C80-   C86-   C87-   C85
    45     51     52     64      9     0.00   0.65084   3 ;    C80-   C86-   C87-   O14
    45     51     52    241      9     0.00   0.65084   3 ;    C80-   C86-   C87-  H200
    45     51     57     55      9     0.00   0.75312   3 ;    C80-   C86-   C92-   C90
    45     51     57     55      9   180.00   0.83680   1 ;    C80-   C86-   C92-   C90
    45     51     57     55      9   180.00   1.04600   2 ;    C80-   C86-   C92-   C90
    45     51     57    245      9     0.00   0.66944   3 ;    C80-   C86-   C92-  H202
    46     42     43     53      9   180.00   7.94960   1 ;    C81-   C77-   C78-   C88
    46     42     43     53      9   180.00  27.82360   2 ;    C81-   C77-   C78-   C88
    46     42     43     62      9   180.00   7.94960   1 ;    C81-   C77-   C78-   C97
    46     42     43     62      9   180.00  27.82360   2 ;    C81-   C77-   C78-   C97
    46     59     55     48      9     0.00   0.75312   3 ;    C81-   C94-   C90-   C83
    46     59     55     48      9   180.00   0.83680   1 ;    C81-   C94-   C90-   C83
    46     59     55     48      9   180.00   1.04600   2 ;    C81-   C94-   C90-   C83
    46     59     55     57      9     0.00   0.75312   3 ;    C81-   C94-   C90-   C92
    46     59     55     57      9   180.00   0.83680   1 ;    C81-   C94-   C90-   C92
    46     59     55     57      9   180.00   1.04600   2 ;    C81-   C94-   C90-   C92
    46     59     56     54      9     0.00   0.75312   3 ;    C81-   C94-   C91-   C89
    46     59     56     54      9   180.00   0.83680   1 ;    C81-   C94-   C91-   C89
    46     59     56     54      9   180.00   1.04600   2 ;    C81-   C94-   C91-   C89
    46     59     56     60      9     0.00   0.75312   3 ;    C81-   C94-   C91-   C95
    46     59     56     60      9   180.00   0.83680   1 ;    C81-   C94-   C91-   C95
    46     59     56     60      9   180.00   1.04600   2 ;    C81-   C94-   C91-   C95
    46     59     56     62      9     0.00   0.75312   3 ;    C81-   C94-   C91-   C97
    46     59     56     62      9   180.00   0.83680   1 ;    C81-   C94-   C91-   C97
    46     59     56     62      9   180.00   1.04600   2 ;    C81-   C94-   C91-   C97
    47     58     44     49      9     0.00   0.75312   3 ;    C82-   C93-   C79-   C84
    47     58     44     49      9   180.00   0.83680   1 ;    C82-   C93-   C79-   C84
    47     58     44     49      9   180.00   1.04600   2 ;    C82-   C93-   C79-   C84
    47     58     44    225      9     0.00   0.66944   3 ;    C82-   C93-   C79-  H131
    47     58     44    226      9     0.00   0.66944   3 ;    C82-   C93-   C79-  H132
    47     58     53    242      9     0.00   0.66944   3 ;    C82-   C93-   C88-  H201
    47     58     61     65      9   180.00   0.00000   2 ;    C82-   C93-   C96-   O15
    47     58     61     66      9     0.00   0.29288   2 ;    C82-   C93-   C96-    N2
    47     58     61     66      9     0.00   0.41840   4 ;    C82-   C93-   C96-    N2
    48     55     40     50      9     0.00   0.75312   3 ;    C83-   C90-   C75-   C85
    48     55     40     50      9   180.00   0.83680   1 ;    C83-   C90-   C75-   C85
    48     55     40     50      9   180.00   1.04600   2 ;    C83-   C90-   C75-   C85
    48     55     40    223      9     0.00   0.66944   3 ;    C83-   C90-   C75-  H129
    48     55     40    224      9     0.00   0.66944   3 ;    C83-   C90-   C75-  H130
    48     55     57     51      9     0.00   0.75312   3 ;    C83-   C90-   C92-   C86
    48     55     57     51      9   180.00   0.83680   1 ;    C83-   C90-   C92-   C86
    48     55     57     51      9   180.00   1.04600   2 ;    C83-   C90-   C92-   C86
    48     55     57    245      9     0.00   0.66944   3 ;    C83-   C90-   C92-  H202
    48     55     59     56      9     0.00   0.75312   3 ;    C83-   C90-   C94-   C91
    48     55     59     56      9   180.00   0.83680   1 ;    C83-   C90-   C94-   C91
    48     55     59     56      9   180.00   1.04600   2 ;    C83-   C90-   C94-   C91
    48     55     59    246      9     0.00   0.66944   3 ;    C83-   C90-   C94-  H203
    49     44     58     53      9     0.00   0.75312   3 ;    C84-   C79-   C93-   C88
    49     44     58     53      9   180.00   0.83680   1 ;    C84-   C79-   C93-   C88
    49     44     58     53      9   180.00   1.04600   2 ;    C84-   C79-   C93-   C88
    49     44     58     61      9     0.00   0.65084   3 ;    C84-   C79-   C93-   C96
    49     62     43     53      9     0.00   0.00000   0 ;    C84-   C97-   C78-   C88
    49     62     56     54      9     0.00   0.75312   3 ;    C84-   C97-   C91-   C89
    49     62     56     54      9   180.00   0.83680   1 ;    C84-   C97-   C91-   C89
    49     62     56     54      9   180.00   1.04600   2 ;    C84-   C97-   C91-   C89
    49     62     56     59      9     0.00   0.75312   3 ;    C84-   C97-   C91-   C94
    49     62     56     59      9   180.00   0.83680   1 ;    C84-   C97-   C91-   C94
    49     62     56     59      9   180.00   1.04600   2 ;    C84-   C97-   C91-   C94
    49     62     56     60      9     0.00   0.75312   3 ;    C84-   C97-   C91-   C95
    49     62     56     60      9   180.00   0.83680   1 ;    C84-   C97-   C91-   C95
    49     62     56     60      9   180.00   1.04600   2 ;    C84-   C97-   C91-   C95
    49     62     63    250      9     0.00   0.66944   3 ;    C84-   C97-   C98-  H152
    49     62     63    251      9     0.00   0.66944   3 ;    C84-   C97-   C98-  H153
    49     62     63    252      9     0.00   0.66944   3 ;    C84-   C97-   C98-  H154
    50     40     55     57      9     0.00   0.75312   3 ;    C85-   C75-   C90-   C92
    50     40     55     57      9   180.00   0.83680   1 ;    C85-   C75-   C90-   C92
    50     40     55     57      9   180.00   1.04600   2 ;    C85-   C75-   C90-   C92
    50     40     55     59      9     0.00   0.75312   3 ;    C85-   C75-   C90-   C94
    50     40     55     59      9   180.00   0.83680   1 ;    C85-   C75-   C90-   C94
    50     40     55     59      9   180.00   1.04600   2 ;    C85-   C75-   C90-   C94
    50     52     51     57      9     0.00   0.75312   3 ;    C85-   C87-   C86-   C92
    50     52     51     57      9   180.00   0.83680   1 ;    C85-   C87-   C86-   C92
    50     52     51     57      9   180.00   1.04600   2 ;    C85-   C87-   C86-   C92
    50     52     64    253      9     0.00   0.66944   3 ;    C85-   C87-   O14-  H209
    50     52     64    253      9     0.00   1.04600   1 ;    C85-   C87-   O14-  H209
    51     52     50    239      9     0.00   0.66944   3 ;    C86-   C87-   C85-  H145
    51     52     50    240      9     0.00   0.66944   3 ;    C86-   C87-   C85-  H146
    51     52     64    253      9     0.00   0.66944   3 ;    C86-   C87-   O14-  H209
    51     52     64    253      9     0.00   1.04600   1 ;    C86-   C87-   O14-  H209
    51     57     39     54      9     0.00   0.75312   3 ;    C86-   C92-   C74-   C89
    51     57     39     54      9   180.00   0.83680   1 ;    C86-   C92-   C74-   C89
    51     57     39     54      9   180.00   1.04600   2 ;    C86-   C92-   C74-   C89
    51     57     39    221      9     0.00   0.66944   3 ;    C86-   C92-   C74-  H127
    51     57     39    222      9     0.00   0.66944   3 ;    C86-   C92-   C74-  H128
    51     57     55     59      9     0.00   0.75312   3 ;    C86-   C92-   C90-   C94
    51     57     55     59      9   180.00   0.83680   1 ;    C86-   C92-   C90-   C94
    51     57     55     59      9   180.00   1.04600   2 ;    C86-   C92-   C90-   C94
    52     50     40     55      9     0.00   0.75312   3 ;    C87-   C85-   C75-   C90
    52     50     40     55      9   180.00   0.83680   1 ;    C87-   C85-   C75-   C90
    52     50     40     55      9   180.00   1.04600   2 ;    C87-   C85-   C75-   C90
    52     50     40    223      9     0.00   0.66944   3 ;    C87-   C85-   C75-  H129
    52     50     40    224      9     0.00   0.66944   3 ;    C87-   C85-   C75-  H130
    52     51     36    214      9     0.00   0.66944   3 ;    C87-   C86-   C71-  H120
    52     51     36    215      9     0.00   0.66944   3 ;    C87-   C86-   C71-  H121
    52     51     36    216      9     0.00   0.66944   3 ;    C87-   C86-   C71-  H122
    52     51     45    227      9     0.00   0.66944   3 ;    C87-   C86-   C80-  H133
    52     51     45    228      9     0.00   0.66944   3 ;    C87-   C86-   C80-  H134
    52     51     45    229      9     0.00   0.66944   3 ;    C87-   C86-   C80-  H135
    52     51     57     55      9     0.00   0.75312   3 ;    C87-   C86-   C92-   C90
    52     51     57     55      9   180.00   0.83680   1 ;    C87-   C86-   C92-   C90
    52     51     57     55      9   180.00   1.04600   2 ;    C87-   C86-   C92-   C90
    52     51     57    245      9     0.00   0.66944   3 ;    C87-   C86-   C92-  H202
    53     43     42    372      9   180.00  27.82360   2 ;    C88-   C78-   C77-   H72
    53     43     62     56      9     0.00   0.00000   0 ;    C88-   C78-   C97-   C91
    53     43     62     63      9     0.00   0.00000   0 ;    C88-   C78-   C97-   C98
    53     58     44    225      9     0.00   0.66944   3 ;    C88-   C93-   C79-  H131
    53     58     44    226      9     0.00   0.66944   3 ;    C88-   C93-   C79-  H132
    53     58     47    232      9     0.00   0.66944   3 ;    C88-   C93-   C82-  H138
    53     58     47    233      9     0.00   0.66944   3 ;    C88-   C93-   C82-  H139
    53     58     61     65      9   180.00   0.00000   2 ;    C88-   C93-   C96-   O15
    53     58     61     66      9     0.00   0.29288   2 ;    C88-   C93-   C96-    N2
    53     58     61     66      9     0.00   0.41840   4 ;    C88-   C93-   C96-    N2
    54     39     57     55      9     0.00   0.75312   3 ;    C89-   C74-   C92-   C90
    54     39     57     55      9   180.00   0.83680   1 ;    C89-   C74-   C92-   C90
    54     39     57     55      9   180.00   1.04600   2 ;    C89-   C74-   C92-   C90
    54     39     57    245      9     0.00   0.66944   3 ;    C89-   C74-   C92-  H202
    54     56     59     55      9     0.00   0.75312   3 ;    C89-   C91-   C94-   C90
    54     56     59     55      9   180.00   0.83680   1 ;    C89-   C91-   C94-   C90
    54     56     59     55      9   180.00   1.04600   2 ;    C89-   C91-   C94-   C90
    54     56     59    246      9     0.00   0.66944   3 ;    C89-   C91-   C94-  H203
    54     56     60    247      9     0.00   0.66944   3 ;    C89-   C91-   C95-  H149
    54     56     60    248      9     0.00   0.66944   3 ;    C89-   C91-   C95-  H150
    54     56     60    249      9     0.00   0.66944   3 ;    C89-   C91-   C95-  H151
    54     56     62     63      9     0.00   0.75312   3 ;    C89-   C91-   C97-   C98
    54     56     62     63      9   180.00   0.83680   1 ;    C89-   C91-   C97-   C98
    54     56     62     63      9   180.00   1.04600   2 ;    C89-   C91-   C97-   C98
    55     40     50    239      9     0.00   0.66944   3 ;    C90-   C75-   C85-  H145
    55     40     50    240      9     0.00   0.66944   3 ;    C90-   C75-   C85-  H146
    55     57     39    221      9     0.00   0.66944   3 ;    C90-   C92-   C74-  H127
    55     57     39    222      9     0.00   0.66944   3 ;    C90-   C92-   C74-  H128
    55     59     46    230      9     0.00   0.66944   3 ;    C90-   C94-   C81-  H136
    55     59     46    231      9     0.00   0.66944   3 ;    C90-   C94-   C81-  H137
    55     59     56     60      9     0.00   0.75312   3 ;    C90-   C94-   C91-   C95
    55     59     56     60      9   180.00   0.83680   1 ;    C90-   C94-   C91-   C95
    55     59     56     60      9   180.00   1.04600   2 ;    C90-   C94-   C91-   C95
    55     59     56     62      9     0.00   0.75312   3 ;    C90-   C94-   C91-   C97
    55     59     56     62      9   180.00   0.83680   1 ;    C90-   C94-   C91-   C97
    55     59     56     62      9   180.00   1.04600   2 ;    C90-   C94-   C91-   C97
    56     54     39     57      9     0.00   0.75312   3 ;    C91-   C89-   C74-   C92
    56     54     39     57      9   180.00   0.83680   1 ;    C91-   C89-   C74-   C92
    56     54     39     57      9   180.00   1.04600   2 ;    C91-   C89-   C74-   C92
    56     54     39    221      9     0.00   0.66944   3 ;    C91-   C89-   C74-  H127
    56     54     39    222      9     0.00   0.66944   3 ;    C91-   C89-   C74-  H128
    56     59     46    230      9     0.00   0.66944   3 ;    C91-   C94-   C81-  H136
    56     59     46    231      9     0.00   0.66944   3 ;    C91-   C94-   C81-  H137
    56     59     55     57      9     0.00   0.75312   3 ;    C91-   C94-   C90-   C92
    56     59     55     57      9   180.00   0.83680   1 ;    C91-   C94-   C90-   C92
    56     59     55     57      9   180.00   1.04600   2 ;    C91-   C94-   C90-   C92
    56     62     49    237      9     0.00   0.66944   3 ;    C91-   C97-   C84-  H143
    56     62     49    238      9     0.00   0.66944   3 ;    C91-   C97-   C84-  H144
    56     62     63    250      9     0.00   0.66944   3 ;    C91-   C97-   C98-  H152
    56     62     63    251      9     0.00   0.66944   3 ;    C91-   C97-   C98-  H153
    56     62     63    252      9     0.00   0.66944   3 ;    C91-   C97-   C98-  H154
    57     39     54    243      9     0.00   0.66944   3 ;    C92-   C74-   C89-  H147
    57     39     54    244      9     0.00   0.66944   3 ;    C92-   C74-   C89-  H148
    57     51     36    214      9     0.00   0.66944   3 ;    C92-   C86-   C71-  H120
    57     51     36    215      9     0.00   0.66944   3 ;    C92-   C86-   C71-  H121
    57     51     36    216      9     0.00   0.66944   3 ;    C92-   C86-   C71-  H122
    57     51     45    227      9     0.00   0.66944   3 ;    C92-   C86-   C80-  H133
    57     51     45    228      9     0.00   0.66944   3 ;    C92-   C86-   C80-  H134
    57     51     45    229      9     0.00   0.66944   3 ;    C92-   C86-   C80-  H135
    57     51     52     64      9     0.00   0.65084   3 ;    C92-   C86-   C87-   O14
    57     51     52    241      9     0.00   0.65084   3 ;    C92-   C86-   C87-  H200
    57     55     40    223      9     0.00   0.66944   3 ;    C92-   C90-   C75-  H129
    57     55     40    224      9     0.00   0.66944   3 ;    C92-   C90-   C75-  H130
    57     55     48    234      9     0.00   0.66944   3 ;    C92-   C90-   C83-  H140
    57     55     48    235      9     0.00   0.66944   3 ;    C92-   C90-   C83-  H141
    57     55     48    236      9     0.00   0.66944   3 ;    C92-   C90-   C83-  H142
    57     55     59    246      9     0.00   0.66944   3 ;    C92-   C90-   C94-  H203
    58     44     49     62      9     0.00   0.75312   3 ;    C93-   C79-   C84-   C97
    58     44     49     62      9   180.00   0.83680   1 ;    C93-   C79-   C84-   C97
    58     44     49     62      9   180.00   1.04600   2 ;    C93-   C79-   C84-   C97
    58     44     49    237      9     0.00   0.66944   3 ;    C93-   C79-   C84-  H143
    58     44     49    238      9     0.00   0.66944   3 ;    C93-   C79-   C84-  H144
    58     47     38    219      9     0.00   0.66944   3 ;    C93-   C82-   C73-  H125
    58     47     38    220      9     0.00   0.66944   3 ;    C93-   C82-   C73-  H126
    58     53     37    217      9     0.00   0.66944   3 ;    C93-   C88-   C72-  H123
    58     53     37    218      9     0.00   0.66944   3 ;    C93-   C88-   C72-  H124
    58     53     43     62      9     0.00   0.00000   0 ;    C93-   C88-   C78-   C97
    58     61     66    100      9     0.00   0.00000   0 ;    C93-   C96-    N2-    C1
    58     61     66    100      9   180.00   6.27600   1 ;    C93-   C96-    N2-    C1
    58     61     66    373      9   180.00  10.46000   2 ;    C93-   C96-    N2-   H73
    59     46     42    372      9     0.00   0.00000   0 ;    C94-   C81-   C77-   H72
    59     55     40    223      9     0.00   0.66944   3 ;    C94-   C90-   C75-  H129
    59     55     40    224      9     0.00   0.66944   3 ;    C94-   C90-   C75-  H130
    59     55     48    234      9     0.00   0.66944   3 ;    C94-   C90-   C83-  H140
    59     55     48    235      9     0.00   0.66944   3 ;    C94-   C90-   C83-  H141
    59     55     48    236      9     0.00   0.66944   3 ;    C94-   C90-   C83-  H142
    59     55     57    245      9     0.00   0.66944   3 ;    C94-   C90-   C92-  H202
    59     56     54    243      9     0.00   0.66944   3 ;    C94-   C91-   C89-  H147
    59     56     54    244      9     0.00   0.66944   3 ;    C94-   C91-   C89-  H148
    59     56     60    247      9     0.00   0.66944   3 ;    C94-   C91-   C95-  H149
    59     56     60    248      9     0.00   0.66944   3 ;    C94-   C91-   C95-  H150
    59     56     60    249      9     0.00   0.66944   3 ;    C94-   C91-   C95-  H151
    59     56     62     63      9     0.00   0.75312   3 ;    C94-   C91-   C97-   C98
    59     56     62     63      9   180.00   0.83680   1 ;    C94-   C91-   C97-   C98
    59     56     62     63      9   180.00   1.04600   2 ;    C94-   C91-   C97-   C98
    60     56     54    243      9     0.00   0.66944   3 ;    C95-   C91-   C89-  H147
    60     56     54    244      9     0.00   0.66944   3 ;    C95-   C91-   C89-  H148
    60     56     59    246      9     0.00   0.66944   3 ;    C95-   C91-   C94-  H203
    60     56     62     63      9     0.00   0.75312   3 ;    C95-   C91-   C97-   C98
    60     56     62     63      9   180.00   0.83680   1 ;    C95-   C91-   C97-   C98
    60     56     62     63      9   180.00   1.04600   2 ;    C95-   C91-   C97-   C98
    61     58     44    225      9     0.00   0.65084   3 ;    C96-   C93-   C79-  H131
    61     58     44    226      9     0.00   0.65084   3 ;    C96-   C93-   C79-  H132
    61     58     47    232      9     0.00   0.65084   3 ;    C96-   C93-   C82-  H138
    61     58     47    233      9     0.00   0.65084   3 ;    C96-   C93-   C82-  H139
    61     58     53    242      9     0.00   0.65084   3 ;    C96-   C93-   C88-  H201
    61     66    100    101      9     0.00   0.00000   0 ;    C96-    N2-    C1-    C2
    61     66    100    101      9     0.00   2.21752   1 ;    C96-    N2-    C1-    C2
    61     66    100    101      9   180.00   0.62760   3 ;    C96-    N2-    C1-    C2
    61     66    100    101      9   180.00   2.09200   4 ;    C96-    N2-    C1-    C2
    61     66    100    301      9     0.00   0.00000   0 ;    C96-    N2-    C1-    H1
    61     66    100    302      9     0.00   0.00000   0 ;    C96-    N2-    C1-    H2
    62     43     42    372      9   180.00  27.82360   2 ;    C97-   C78-   C77-   H72
    62     43     53    242      9     0.00   0.00000   0 ;    C97-   C78-   C88-  H201
    62     49     44    225      9     0.00   0.66944   3 ;    C97-   C84-   C79-  H131
    62     49     44    226      9     0.00   0.66944   3 ;    C97-   C84-   C79-  H132
    62     56     54    243      9     0.00   0.66944   3 ;    C97-   C91-   C89-  H147
    62     56     54    244      9     0.00   0.66944   3 ;    C97-   C91-   C89-  H148
    62     56     59    246      9     0.00   0.66944   3 ;    C97-   C91-   C94-  H203
    62     56     60    247      9     0.00   0.66944   3 ;    C97-   C91-   C95-  H149
    62     56     60    248      9     0.00   0.66944   3 ;    C97-   C91-   C95-  H150
    62     56     60    249      9     0.00   0.66944   3 ;    C97-   C91-   C95-  H151
    63     62     49    237      9     0.00   0.66944   3 ;    C98-   C97-   C84-  H143
    63     62     49    238      9     0.00   0.66944   3 ;    C98-   C97-   C84-  H144
    64     52     50    239      9     0.00   0.00000   0 ;    O14-   C87-   C85-  H145
    64     52     50    239      9     0.00   1.04600   1 ;    O14-   C87-   C85-  H145
    64     52     50    240      9     0.00   0.00000   0 ;    O14-   C87-   C85-  H146
    64     52     50    240      9     0.00   1.04600   1 ;    O14-   C87-   C85-  H146
    65     61     66    100      9   180.00  10.46000   2 ;    O15-   C96-    N2-    C1
    65     61     66    373      9     0.00   8.36800   1 ;    O15-   C96-    N2-   H73
    65     61     66    373      9   180.00  10.46000   2 ;    O15-   C96-    N2-   H73
    66    100    101    102      9     0.00   0.65084   3 ;     N2-    C1-    C2-    O1
    66    100    101    303      9     0.00   0.65084   3 ;     N2-    C1-    C2-    H3
    66    100    101    304      9     0.00   0.65084   3 ;     N2-    C1-    C2-    H4
    67     74     68    257      9     0.00   0.66944   3 ;    C99-  C106-  C100-  H158
    67     74     68    258      9     0.00   0.66944   3 ;    C99-  C106-  C100-  H159
    67     74     68    259      9     0.00   0.66944   3 ;    C99-  C106-  C100-  H160
    67     74     70     86      9     0.00   0.75312   3 ;    C99-  C106-  C102-  C118
    67     74     70     86      9   180.00   0.83680   1 ;    C99-  C106-  C102-  C118
    67     74     70     86      9   180.00   1.04600   2 ;    C99-  C106-  C102-  C118
    67     74     70    263      9     0.00   0.66944   3 ;    C99-  C106-  C102-  H164
    67     74     70    264      9     0.00   0.66944   3 ;    C99-  C106-  C102-  H165
    67     74     71     80      9     0.00   0.75312   3 ;    C99-  C106-  C103-  C112
    67     74     71     80      9   180.00   0.83680   1 ;    C99-  C106-  C103-  C112
    67     74     71     80      9   180.00   1.04600   2 ;    C99-  C106-  C103-  C112
    67     74     71    265      9     0.00   0.66944   3 ;    C99-  C106-  C103-  H166
    67     74     71    266      9     0.00   0.66944   3 ;    C99-  C106-  C103-  H167
    68     74     67    254      9     0.00   0.66944   3 ;   C100-  C106-   C99-  H155
    68     74     67    255      9     0.00   0.66944   3 ;   C100-  C106-   C99-  H156
    68     74     67    256      9     0.00   0.66944   3 ;   C100-  C106-   C99-  H157
    68     74     70     86      9     0.00   0.75312   3 ;   C100-  C106-  C102-  C118
    68     74     70     86      9   180.00   0.83680   1 ;   C100-  C106-  C102-  C118
    68     74     70     86      9   180.00   1.04600   2 ;   C100-  C106-  C102-  C118
    68     74     70    263      9     0.00   0.66944   3 ;   C100-  C106-  C102-  H164
    68     74     70    264      9     0.00   0.66944   3 ;   C100-  C106-  C102-  H165
    68     74     71     80      9     0.00   0.75312   3 ;   C100-  C106-  C103-  C112
    68     74     71     80      9   180.00   0.83680   1 ;   C100-  C106-  C103-  C112
    68     74     71     80      9   180.00   1.04600   2 ;   C100-  C106-  C103-  C112
    68     74     71    265      9     0.00   0.66944   3 ;   C100-  C106-  C103-  H166
    68     74     71    266      9     0.00   0.66944   3 ;   C100-  C106-  C103-  H167
    69     84     78    274      9     0.00   0.66944   3 ;   C101-  C116-  C110-  H174
    69     84     78    275      9     0.00   0.66944   3 ;   C101-  C116-  C110-  H175
    69     84     78    276      9     0.00   0.66944   3 ;   C101-  C116-  C110-  H176
    69     84     85     83      9     0.00   0.75312   3 ;   C101-  C116-  C117-  C115
    69     84     85     83      9   180.00   0.83680   1 ;   C101-  C116-  C117-  C115
    69     84     85     83      9   180.00   1.04600   2 ;   C101-  C116-  C117-  C115
    69     84     85     97      9     0.00   0.65084   3 ;   C101-  C116-  C117-   O16
    69     84     85    288      9     0.00   0.65084   3 ;   C101-  C116-  C117-  H205
    69     84     90     72      9     0.00   0.75312   3 ;   C101-  C116-  C122-  C104
    69     84     90     72      9   180.00   0.83680   1 ;   C101-  C116-  C122-  C104
    69     84     90     72      9   180.00   1.04600   2 ;   C101-  C116-  C122-  C104
    69     84     90     88      9     0.00   0.75312   3 ;   C101-  C116-  C122-  C120
    69     84     90     88      9   180.00   0.83680   1 ;   C101-  C116-  C122-  C120
    69     84     90     88      9   180.00   1.04600   2 ;   C101-  C116-  C122-  C120
    69     84     90    292      9     0.00   0.66944   3 ;   C101-  C116-  C122-  H207
    70     74     67    254      9     0.00   0.66944   3 ;   C102-  C106-   C99-  H155
    70     74     67    255      9     0.00   0.66944   3 ;   C102-  C106-   C99-  H156
    70     74     67    256      9     0.00   0.66944   3 ;   C102-  C106-   C99-  H157
    70     74     68    257      9     0.00   0.66944   3 ;   C102-  C106-  C100-  H158
    70     74     68    258      9     0.00   0.66944   3 ;   C102-  C106-  C100-  H159
    70     74     68    259      9     0.00   0.66944   3 ;   C102-  C106-  C100-  H160
    70     74     71     80      9     0.00   0.75312   3 ;   C102-  C106-  C103-  C112
    70     74     71     80      9   180.00   0.83680   1 ;   C102-  C106-  C103-  C112
    70     74     71     80      9   180.00   1.04600   2 ;   C102-  C106-  C103-  C112
    70     74     71    265      9     0.00   0.66944   3 ;   C102-  C106-  C103-  H166
    70     74     71    266      9     0.00   0.66944   3 ;   C102-  C106-  C103-  H167
    70     86     76     75      9     0.00   0.00000   0 ;   C102-  C118-  C108-  C107
    70     86     76     95      9     0.00   0.00000   0 ;   C102-  C118-  C108-  C127
    70     86     91     77      9     0.00   0.75312   3 ;   C102-  C118-  C123-  C109
    70     86     91     77      9   180.00   0.83680   1 ;   C102-  C118-  C123-  C109
    70     86     91     77      9   180.00   1.04600   2 ;   C102-  C118-  C123-  C109
    70     86     91     80      9     0.00   0.75312   3 ;   C102-  C118-  C123-  C112
    70     86     91     80      9   180.00   0.83680   1 ;   C102-  C118-  C123-  C112
    70     86     91     80      9   180.00   1.04600   2 ;   C102-  C118-  C123-  C112
    70     86     91     94      9     0.00   0.65084   3 ;   C102-  C118-  C123-  C126
    71     74     67    254      9     0.00   0.66944   3 ;   C103-  C106-   C99-  H155
    71     74     67    255      9     0.00   0.66944   3 ;   C103-  C106-   C99-  H156
    71     74     67    256      9     0.00   0.66944   3 ;   C103-  C106-   C99-  H157
    71     74     68    257      9     0.00   0.66944   3 ;   C103-  C106-  C100-  H158
    71     74     68    258      9     0.00   0.66944   3 ;   C103-  C106-  C100-  H159
    71     74     68    259      9     0.00   0.66944   3 ;   C103-  C106-  C100-  H160
    71     74     70     86      9     0.00   0.75312   3 ;   C103-  C106-  C102-  C118
    71     74     70     86      9   180.00   0.83680   1 ;   C103-  C106-  C102-  C118
    71     74     70     86      9   180.00   1.04600   2 ;   C103-  C106-  C102-  C118
    71     74     70    263      9     0.00   0.66944   3 ;   C103-  C106-  C102-  H164
    71     74     70    264      9     0.00   0.66944   3 ;   C103-  C106-  C102-  H165
    71     80     91     77      9     0.00   0.75312   3 ;   C103-  C112-  C123-  C109
    71     80     91     77      9   180.00   0.83680   1 ;   C103-  C112-  C123-  C109
    71     80     91     77      9   180.00   1.04600   2 ;   C103-  C112-  C123-  C109
    71     80     91     86      9     0.00   0.75312   3 ;   C103-  C112-  C123-  C118
    71     80     91     86      9   180.00   0.83680   1 ;   C103-  C112-  C123-  C118
    71     80     91     86      9   180.00   1.04600   2 ;   C103-  C112-  C123-  C118
    71     80     91     94      9     0.00   0.65084   3 ;   C103-  C112-  C123-  C126
    72     87     89     92      9     0.00   0.75312   3 ;   C104-  C119-  C121-  C124
    72     87     89     92      9   180.00   0.83680   1 ;   C104-  C119-  C121-  C124
    72     87     89     92      9   180.00   1.04600   2 ;   C104-  C119-  C121-  C124
    72     87     89     93      9     0.00   0.75312   3 ;   C104-  C119-  C121-  C125
    72     87     89     93      9   180.00   0.83680   1 ;   C104-  C119-  C121-  C125
    72     87     89     93      9   180.00   1.04600   2 ;   C104-  C119-  C121-  C125
    72     87     89     95      9     0.00   0.75312   3 ;   C104-  C119-  C121-  C127
    72     87     89     95      9   180.00   0.83680   1 ;   C104-  C119-  C121-  C127
    72     87     89     95      9   180.00   1.04600   2 ;   C104-  C119-  C121-  C127
    72     90     84     78      9     0.00   0.75312   3 ;   C104-  C122-  C116-  C110
    72     90     84     78      9   180.00   0.83680   1 ;   C104-  C122-  C116-  C110
    72     90     84     78      9   180.00   1.04600   2 ;   C104-  C122-  C116-  C110
    72     90     84     85      9     0.00   0.75312   3 ;   C104-  C122-  C116-  C117
    72     90     84     85      9   180.00   0.83680   1 ;   C104-  C122-  C116-  C117
    72     90     84     85      9   180.00   1.04600   2 ;   C104-  C122-  C116-  C117
    72     90     88     73      9     0.00   0.75312   3 ;   C104-  C122-  C120-  C105
    72     90     88     73      9   180.00   0.83680   1 ;   C104-  C122-  C120-  C105
    72     90     88     73      9   180.00   1.04600   2 ;   C104-  C122-  C120-  C105
    72     90     88     81      9     0.00   0.75312   3 ;   C104-  C122-  C120-  C113
    72     90     88     81      9   180.00   0.83680   1 ;   C104-  C122-  C120-  C113
    72     90     88     81      9   180.00   1.04600   2 ;   C104-  C122-  C120-  C113
    72     90     88     92      9     0.00   0.75312   3 ;   C104-  C122-  C120-  C124
    72     90     88     92      9   180.00   0.83680   1 ;   C104-  C122-  C120-  C124
    72     90     88     92      9   180.00   1.04600   2 ;   C104-  C122-  C120-  C124
    73     83     85     84      9     0.00   0.75312   3 ;   C105-  C115-  C117-  C116
    73     83     85     84      9   180.00   0.83680   1 ;   C105-  C115-  C117-  C116
    73     83     85     84      9   180.00   1.04600   2 ;   C105-  C115-  C117-  C116
    73     83     85     97      9     0.00   0.65084   3 ;   C105-  C115-  C117-   O16
    73     83     85    288      9     0.00   0.65084   3 ;   C105-  C115-  C117-  H205
    73     88     81    281      9     0.00   0.66944   3 ;   C105-  C120-  C113-  H181
    73     88     81    282      9     0.00   0.66944   3 ;   C105-  C120-  C113-  H182
    73     88     81    283      9     0.00   0.66944   3 ;   C105-  C120-  C113-  H183
    73     88     90     84      9     0.00   0.75312   3 ;   C105-  C120-  C122-  C116
    73     88     90     84      9   180.00   0.83680   1 ;   C105-  C120-  C122-  C116
    73     88     90     84      9   180.00   1.04600   2 ;   C105-  C120-  C122-  C116
    73     88     90    292      9     0.00   0.66944   3 ;   C105-  C120-  C122-  H207
    73     88     92     79      9     0.00   0.75312   3 ;   C105-  C120-  C124-  C111
    73     88     92     79      9   180.00   0.83680   1 ;   C105-  C120-  C124-  C111
    73     88     92     79      9   180.00   1.04600   2 ;   C105-  C120-  C124-  C111
    73     88     92     89      9     0.00   0.75312   3 ;   C105-  C120-  C124-  C121
    73     88     92     89      9   180.00   0.83680   1 ;   C105-  C120-  C124-  C121
    73     88     92     89      9   180.00   1.04600   2 ;   C105-  C120-  C124-  C121
    73     88     92    293      9     0.00   0.66944   3 ;   C105-  C120-  C124-  H208
    74     70     86     76      9     0.00   0.65084   3 ;   C106-  C102-  C118-  C108
    74     70     86     91      9     0.00   0.75312   3 ;   C106-  C102-  C118-  C123
    74     70     86     91      9   180.00   0.83680   1 ;   C106-  C102-  C118-  C123
    74     70     86     91      9   180.00   1.04600   2 ;   C106-  C102-  C118-  C123
    74     70     86    289      9     0.00   0.66944   3 ;   C106-  C102-  C118-  H206
    74     71     80     91      9     0.00   0.75312   3 ;   C106-  C103-  C112-  C123
    74     71     80     91      9   180.00   0.83680   1 ;   C106-  C103-  C112-  C123
    74     71     80     91      9   180.00   1.04600   2 ;   C106-  C103-  C112-  C123
    74     71     80    279      9     0.00   0.66944   3 ;   C106-  C103-  C112-  H179
    74     71     80    280      9     0.00   0.66944   3 ;   C106-  C103-  C112-  H180
    75     76     86     91      9     0.00   0.00000   0 ;   C107-  C108-  C118-  C123
    75     76     86    289      9     0.00   0.00000   0 ;   C107-  C108-  C118-  H206
    75     76     86    289      9     0.00   4.81160   1 ;   C107-  C108-  C118-  H206
    75     76     86    289      9   180.00   1.58992   3 ;   C107-  C108-  C118-  H206
    75     76     95     82      9     0.00   0.00000   0 ;   C107-  C108-  C127-  C114
    75     76     95     89      9     0.00   0.00000   0 ;   C107-  C108-  C127-  C121
    75     76     95     96      9     0.00   0.00000   0 ;   C107-  C108-  C127-  C128
    75     79     92     88      9     0.00   0.65084   3 ;   C107-  C111-  C124-  C120
    75     79     92     89      9     0.00   0.65084   3 ;   C107-  C111-  C124-  C121
    75     79     92    293      9     0.00   0.65084   3 ;   C107-  C111-  C124-  H208
    76     75     79     92      9     0.00   0.00000   0 ;   C108-  C107-  C111-  C124
    76     75     79    277      9     0.00   0.00000   0 ;   C108-  C107-  C111-  H177
    76     75     79    277      9     0.00   4.81160   1 ;   C108-  C107-  C111-  H177
    76     75     79    277      9   180.00   1.58992   3 ;   C108-  C107-  C111-  H177
    76     75     79    278      9     0.00   0.00000   0 ;   C108-  C107-  C111-  H178
    76     75     79    278      9     0.00   4.81160   1 ;   C108-  C107-  C111-  H178
    76     75     79    278      9   180.00   1.58992   3 ;   C108-  C107-  C111-  H178
    76     86     70    263      9     0.00   0.65084   3 ;   C108-  C118-  C102-  H164
    76     86     70    264      9     0.00   0.65084   3 ;   C108-  C118-  C102-  H165
    76     86     91     77      9     0.00   0.65084   3 ;   C108-  C118-  C123-  C109
    76     86     91     80      9     0.00   0.65084   3 ;   C108-  C118-  C123-  C112
    76     86     91     94      9     0.00   0.65084   3 ;   C108-  C118-  C123-  C126
    76     95     82     77      9     0.00   0.65084   3 ;   C108-  C127-  C114-  C109
    76     95     82    284      9     0.00   0.65084   3 ;   C108-  C127-  C114-  H184
    76     95     82    285      9     0.00   0.65084   3 ;   C108-  C127-  C114-  H185
    76     95     89     87      9     0.00   0.65084   3 ;   C108-  C127-  C121-  C119
    76     95     89     92      9     0.00   0.65084   3 ;   C108-  C127-  C121-  C124
    76     95     89     93      9     0.00   0.65084   3 ;   C108-  C127-  C121-  C125
    76     95     96    297      9     0.00   0.65084   3 ;   C108-  C127-  C128-  H193
    76     95     96    298      9     0.00   0.65084   3 ;   C108-  C127-  C128-  H194
    76     95     96    299      9     0.00   0.65084   3 ;   C108-  C127-  C128-  H195
    77     82     95     89      9     0.00   0.75312   3 ;   C109-  C114-  C127-  C121
    77     82     95     89      9   180.00   0.83680   1 ;   C109-  C114-  C127-  C121
    77     82     95     89      9   180.00   1.04600   2 ;   C109-  C114-  C127-  C121
    77     82     95     96      9     0.00   0.75312   3 ;   C109-  C114-  C127-  C128
    77     82     95     96      9   180.00   0.83680   1 ;   C109-  C114-  C127-  C128
    77     82     95     96      9   180.00   1.04600   2 ;   C109-  C114-  C127-  C128
    77     91     80    279      9     0.00   0.66944   3 ;   C109-  C123-  C112-  H179
    77     91     80    280      9     0.00   0.66944   3 ;   C109-  C123-  C112-  H180
    77     91     86    289      9     0.00   0.66944   3 ;   C109-  C123-  C118-  H206
    77     91     94     98      9   180.00   0.00000   2 ;   C109-  C123-  C126-   O17
    77     91     94     99      9     0.00   0.29288   2 ;   C109-  C123-  C126-    N3
    77     91     94     99      9     0.00   0.41840   4 ;   C109-  C123-  C126-    N3
    78     84     69    260      9     0.00   0.66944   3 ;   C110-  C116-  C101-  H161
    78     84     69    261      9     0.00   0.66944   3 ;   C110-  C116-  C101-  H162
    78     84     69    262      9     0.00   0.66944   3 ;   C110-  C116-  C101-  H163
    78     84     85     83      9     0.00   0.75312   3 ;   C110-  C116-  C117-  C115
    78     84     85     83      9   180.00   0.83680   1 ;   C110-  C116-  C117-  C115
    78     84     85     83      9   180.00   1.04600   2 ;   C110-  C116-  C117-  C115
    78     84     85     97      9     0.00   0.65084   3 ;   C110-  C116-  C117-   O16
    78     84     85    288      9     0.00   0.65084   3 ;   C110-  C116-  C117-  H205
    78     84     90     88      9     0.00   0.75312   3 ;   C110-  C116-  C122-  C120
    78     84     90     88      9   180.00   0.83680   1 ;   C110-  C116-  C122-  C120
    78     84     90     88      9   180.00   1.04600   2 ;   C110-  C116-  C122-  C120
    78     84     90    292      9     0.00   0.66944   3 ;   C110-  C116-  C122-  H207
    79     75     76     86      9   180.00   7.94960   1 ;   C111-  C107-  C108-  C118
    79     75     76     86      9   180.00  27.82360   2 ;   C111-  C107-  C108-  C118
    79     75     76     95      9   180.00   7.94960   1 ;   C111-  C107-  C108-  C127
    79     75     76     95      9   180.00  27.82360   2 ;   C111-  C107-  C108-  C127
    79     92     88     81      9     0.00   0.75312   3 ;   C111-  C124-  C120-  C113
    79     92     88     81      9   180.00   0.83680   1 ;   C111-  C124-  C120-  C113
    79     92     88     81      9   180.00   1.04600   2 ;   C111-  C124-  C120-  C113
    79     92     88     90      9     0.00   0.75312   3 ;   C111-  C124-  C120-  C122
    79     92     88     90      9   180.00   0.83680   1 ;   C111-  C124-  C120-  C122
    79     92     88     90      9   180.00   1.04600   2 ;   C111-  C124-  C120-  C122
    79     92     89     87      9     0.00   0.75312   3 ;   C111-  C124-  C121-  C119
    79     92     89     87      9   180.00   0.83680   1 ;   C111-  C124-  C121-  C119
    79     92     89     87      9   180.00   1.04600   2 ;   C111-  C124-  C121-  C119
    79     92     89     93      9     0.00   0.75312   3 ;   C111-  C124-  C121-  C125
    79     92     89     93      9   180.00   0.83680   1 ;   C111-  C124-  C121-  C125
    79     92     89     93      9   180.00   1.04600   2 ;   C111-  C124-  C121-  C125
    79     92     89     95      9     0.00   0.75312   3 ;   C111-  C124-  C121-  C127
    79     92     89     95      9   180.00   0.83680   1 ;   C111-  C124-  C121-  C127
    79     92     89     95      9   180.00   1.04600   2 ;   C111-  C124-  C121-  C127
    80     91     77     82      9     0.00   0.75312   3 ;   C112-  C123-  C109-  C114
    80     91     77     82      9   180.00   0.83680   1 ;   C112-  C123-  C109-  C114
    80     91     77     82      9   180.00   1.04600   2 ;   C112-  C123-  C109-  C114
    80     91     77    272      9     0.00   0.66944   3 ;   C112-  C123-  C109-  H172
    80     91     77    273      9     0.00   0.66944   3 ;   C112-  C123-  C109-  H173
    80     91     86    289      9     0.00   0.66944   3 ;   C112-  C123-  C118-  H206
    80     91     94     98      9   180.00   0.00000   2 ;   C112-  C123-  C126-   O17
    80     91     94     99      9     0.00   0.29288   2 ;   C112-  C123-  C126-    N3
    80     91     94     99      9     0.00   0.41840   4 ;   C112-  C123-  C126-    N3
    81     88     73     83      9     0.00   0.75312   3 ;   C113-  C120-  C105-  C115
    81     88     73     83      9   180.00   0.83680   1 ;   C113-  C120-  C105-  C115
    81     88     73     83      9   180.00   1.04600   2 ;   C113-  C120-  C105-  C115
    81     88     73    269      9     0.00   0.66944   3 ;   C113-  C120-  C105-  H170
    81     88     73    270      9     0.00   0.66944   3 ;   C113-  C120-  C105-  H171
    81     88     90     84      9     0.00   0.75312   3 ;   C113-  C120-  C122-  C116
    81     88     90     84      9   180.00   0.83680   1 ;   C113-  C120-  C122-  C116
    81     88     90     84      9   180.00   1.04600   2 ;   C113-  C120-  C122-  C116
    81     88     90    292      9     0.00   0.66944   3 ;   C113-  C120-  C122-  H207
    81     88     92     89      9     0.00   0.75312   3 ;   C113-  C120-  C124-  C121
    81     88     92     89      9   180.00   0.83680   1 ;   C113-  C120-  C124-  C121
    81     88     92     89      9   180.00   1.04600   2 ;   C113-  C120-  C124-  C121
    81     88     92    293      9     0.00   0.66944   3 ;   C113-  C120-  C124-  H208
    82     77     91     86      9     0.00   0.75312   3 ;   C114-  C109-  C123-  C118
    82     77     91     86      9   180.00   0.83680   1 ;   C114-  C109-  C123-  C118
    82     77     91     86      9   180.00   1.04600   2 ;   C114-  C109-  C123-  C118
    82     77     91     94      9     0.00   0.65084   3 ;   C114-  C109-  C123-  C126
    82     95     76     86      9     0.00   0.00000   0 ;   C114-  C127-  C108-  C118
    82     95     89     87      9     0.00   0.75312   3 ;   C114-  C127-  C121-  C119
    82     95     89     87      9   180.00   0.83680   1 ;   C114-  C127-  C121-  C119
    82     95     89     87      9   180.00   1.04600   2 ;   C114-  C127-  C121-  C119
    82     95     89     92      9     0.00   0.75312   3 ;   C114-  C127-  C121-  C124
    82     95     89     92      9   180.00   0.83680   1 ;   C114-  C127-  C121-  C124
    82     95     89     92      9   180.00   1.04600   2 ;   C114-  C127-  C121-  C124
    82     95     89     93      9     0.00   0.75312   3 ;   C114-  C127-  C121-  C125
    82     95     89     93      9   180.00   0.83680   1 ;   C114-  C127-  C121-  C125
    82     95     89     93      9   180.00   1.04600   2 ;   C114-  C127-  C121-  C125
    82     95     96    297      9     0.00   0.66944   3 ;   C114-  C127-  C128-  H193
    82     95     96    298      9     0.00   0.66944   3 ;   C114-  C127-  C128-  H194
    82     95     96    299      9     0.00   0.66944   3 ;   C114-  C127-  C128-  H195
    83     73     88     90      9     0.00   0.75312   3 ;   C115-  C105-  C120-  C122
    83     73     88     90      9   180.00   0.83680   1 ;   C115-  C105-  C120-  C122
    83     73     88     90      9   180.00   1.04600   2 ;   C115-  C105-  C120-  C122
    83     73     88     92      9     0.00   0.75312   3 ;   C115-  C105-  C120-  C124
    83     73     88     92      9   180.00   0.83680   1 ;   C115-  C105-  C120-  C124
    83     73     88     92      9   180.00   1.04600   2 ;   C115-  C105-  C120-  C124
    83     85     84     90      9     0.00   0.75312   3 ;   C115-  C117-  C116-  C122
    83     85     84     90      9   180.00   0.83680   1 ;   C115-  C117-  C116-  C122
    83     85     84     90      9   180.00   1.04600   2 ;   C115-  C117-  C116-  C122
    83     85     97    300      9     0.00   0.66944   3 ;   C115-  C117-   O16-  H210
    83     85     97    300      9     0.00   1.04600   1 ;   C115-  C117-   O16-  H210
    84     85     83    286      9     0.00   0.66944   3 ;   C116-  C117-  C115-  H186
    84     85     83    287      9     0.00   0.66944   3 ;   C116-  C117-  C115-  H187
    84     85     97    300      9     0.00   0.66944   3 ;   C116-  C117-   O16-  H210
    84     85     97    300      9     0.00   1.04600   1 ;   C116-  C117-   O16-  H210
    84     90     72     87      9     0.00   0.75312   3 ;   C116-  C122-  C104-  C119
    84     90     72     87      9   180.00   0.83680   1 ;   C116-  C122-  C104-  C119
    84     90     72     87      9   180.00   1.04600   2 ;   C116-  C122-  C104-  C119
    84     90     72    267      9     0.00   0.66944   3 ;   C116-  C122-  C104-  H168
    84     90     72    268      9     0.00   0.66944   3 ;   C116-  C122-  C104-  H169
    84     90     88     92      9     0.00   0.75312   3 ;   C116-  C122-  C120-  C124
    84     90     88     92      9   180.00   0.83680   1 ;   C116-  C122-  C120-  C124
    84     90     88     92      9   180.00   1.04600   2 ;   C116-  C122-  C120-  C124
    85     83     73     88      9     0.00   0.75312   3 ;   C117-  C115-  C105-  C120
    85     83     73     88      9   180.00   0.83680   1 ;   C117-  C115-  C105-  C120
    85     83     73     88      9   180.00   1.04600   2 ;   C117-  C115-  C105-  C120
    85     83     73    269      9     0.00   0.66944   3 ;   C117-  C115-  C105-  H170
    85     83     73    270      9     0.00   0.66944   3 ;   C117-  C115-  C105-  H171
    85     84     69    260      9     0.00   0.66944   3 ;   C117-  C116-  C101-  H161
    85     84     69    261      9     0.00   0.66944   3 ;   C117-  C116-  C101-  H162
    85     84     69    262      9     0.00   0.66944   3 ;   C117-  C116-  C101-  H163
    85     84     78    274      9     0.00   0.66944   3 ;   C117-  C116-  C110-  H174
    85     84     78    275      9     0.00   0.66944   3 ;   C117-  C116-  C110-  H175
    85     84     78    276      9     0.00   0.66944   3 ;   C117-  C116-  C110-  H176
    85     84     90     88      9     0.00   0.75312   3 ;   C117-  C116-  C122-  C120
    85     84     90     88      9   180.00   0.83680   1 ;   C117-  C116-  C122-  C120
    85     84     90     88      9   180.00   1.04600   2 ;   C117-  C116-  C122-  C120
    85     84     90    292      9     0.00   0.66944   3 ;   C117-  C116-  C122-  H207
    86     76     75    271      9   180.00  27.82360   2 ;   C118-  C108-  C107-  H204
    86     76     95     89      9     0.00   0.00000   0 ;   C118-  C108-  C127-  C121
    86     76     95     96      9     0.00   0.00000   0 ;   C118-  C108-  C127-  C128
    86     91     77    272      9     0.00   0.66944   3 ;   C118-  C123-  C109-  H172
    86     91     77    273      9     0.00   0.66944   3 ;   C118-  C123-  C109-  H173
    86     91     80    279      9     0.00   0.66944   3 ;   C118-  C123-  C112-  H179
    86     91     80    280      9     0.00   0.66944   3 ;   C118-  C123-  C112-  H180
    86     91     94     98      9   180.00   0.00000   2 ;   C118-  C123-  C126-   O17
    86     91     94     99      9     0.00   0.29288   2 ;   C118-  C123-  C126-    N3
    86     91     94     99      9     0.00   0.41840   4 ;   C118-  C123-  C126-    N3
    87     72     90     88      9     0.00   0.75312   3 ;   C119-  C104-  C122-  C120
    87     72     90     88      9   180.00   0.83680   1 ;   C119-  C104-  C122-  C120
    87     72     90     88      9   180.00   1.04600   2 ;   C119-  C104-  C122-  C120
    87     72     90    292      9     0.00   0.66944   3 ;   C119-  C104-  C122-  H207
    87     89     92     88      9     0.00   0.75312   3 ;   C119-  C121-  C124-  C120
    87     89     92     88      9   180.00   0.83680   1 ;   C119-  C121-  C124-  C120
    87     89     92     88      9   180.00   1.04600   2 ;   C119-  C121-  C124-  C120
    87     89     92    293      9     0.00   0.66944   3 ;   C119-  C121-  C124-  H208
    87     89     93    294      9     0.00   0.66944   3 ;   C119-  C121-  C125-  H190
    87     89     93    295      9     0.00   0.66944   3 ;   C119-  C121-  C125-  H191
    87     89     93    296      9     0.00   0.66944   3 ;   C119-  C121-  C125-  H192
    87     89     95     96      9     0.00   0.75312   3 ;   C119-  C121-  C127-  C128
    87     89     95     96      9   180.00   0.83680   1 ;   C119-  C121-  C127-  C128
    87     89     95     96      9   180.00   1.04600   2 ;   C119-  C121-  C127-  C128
    88     73     83    286      9     0.00   0.66944   3 ;   C120-  C105-  C115-  H186
    88     73     83    287      9     0.00   0.66944   3 ;   C120-  C105-  C115-  H187
    88     90     72    267      9     0.00   0.66944   3 ;   C120-  C122-  C104-  H168
    88     90     72    268      9     0.00   0.66944   3 ;   C120-  C122-  C104-  H169
    88     92     79    277      9     0.00   0.66944   3 ;   C120-  C124-  C111-  H177
    88     92     79    278      9     0.00   0.66944   3 ;   C120-  C124-  C111-  H178
    88     92     89     93      9     0.00   0.75312   3 ;   C120-  C124-  C121-  C125
    88     92     89     93      9   180.00   0.83680   1 ;   C120-  C124-  C121-  C125
    88     92     89     93      9   180.00   1.04600   2 ;   C120-  C124-  C121-  C125
    88     92     89     95      9     0.00   0.75312   3 ;   C120-  C124-  C121-  C127
    88     92     89     95      9   180.00   0.83680   1 ;   C120-  C124-  C121-  C127
    88     92     89     95      9   180.00   1.04600   2 ;   C120-  C124-  C121-  C127
    89     87     72     90      9     0.00   0.75312   3 ;   C121-  C119-  C104-  C122
    89     87     72     90      9   180.00   0.83680   1 ;   C121-  C119-  C104-  C122
    89     87     72     90      9   180.00   1.04600   2 ;   C121-  C119-  C104-  C122
    89     87     72    267      9     0.00   0.66944   3 ;   C121-  C119-  C104-  H168
    89     87     72    268      9     0.00   0.66944   3 ;   C121-  C119-  C104-  H169
    89     92     79    277      9     0.00   0.66944   3 ;   C121-  C124-  C111-  H177
    89     92     79    278      9     0.00   0.66944   3 ;   C121-  C124-  C111-  H178
    89     92     88     90      9     0.00   0.75312   3 ;   C121-  C124-  C120-  C122
    89     92     88     90      9   180.00   0.83680   1 ;   C121-  C124-  C120-  C122
    89     92     88     90      9   180.00   1.04600   2 ;   C121-  C124-  C120-  C122
    89     95     82    284      9     0.00   0.66944   3 ;   C121-  C127-  C114-  H184
    89     95     82    285      9     0.00   0.66944   3 ;   C121-  C127-  C114-  H185
    89     95     96    297      9     0.00   0.66944   3 ;   C121-  C127-  C128-  H193
    89     95     96    298      9     0.00   0.66944   3 ;   C121-  C127-  C128-  H194
    89     95     96    299      9     0.00   0.66944   3 ;   C121-  C127-  C128-  H195
    90     72     87    290      9     0.00   0.66944   3 ;   C122-  C104-  C119-  H188
    90     72     87    291      9     0.00   0.66944   3 ;   C122-  C104-  C119-  H189
    90     84     69    260      9     0.00   0.66944   3 ;   C122-  C116-  C101-  H161
    90     84     69    261      9     0.00   0.66944   3 ;   C122-  C116-  C101-  H162
    90     84     69    262      9     0.00   0.66944   3 ;   C122-  C116-  C101-  H163
    90     84     78    274      9     0.00   0.66944   3 ;   C122-  C116-  C110-  H174
    90     84     78    275      9     0.00   0.66944   3 ;   C122-  C116-  C110-  H175
    90     84     78    276      9     0.00   0.66944   3 ;   C122-  C116-  C110-  H176
    90     84     85     97      9     0.00   0.65084   3 ;   C122-  C116-  C117-   O16
    90     84     85    288      9     0.00   0.65084   3 ;   C122-  C116-  C117-  H205
    90     88     73    269      9     0.00   0.66944   3 ;   C122-  C120-  C105-  H170
    90     88     73    270      9     0.00   0.66944   3 ;   C122-  C120-  C105-  H171
    90     88     81    281      9     0.00   0.66944   3 ;   C122-  C120-  C113-  H181
    90     88     81    282      9     0.00   0.66944   3 ;   C122-  C120-  C113-  H182
    90     88     81    283      9     0.00   0.66944   3 ;   C122-  C120-  C113-  H183
    90     88     92    293      9     0.00   0.66944   3 ;   C122-  C120-  C124-  H208
    91     77     82     95      9     0.00   0.75312   3 ;   C123-  C109-  C114-  C127
    91     77     82     95      9   180.00   0.83680   1 ;   C123-  C109-  C114-  C127
    91     77     82     95      9   180.00   1.04600   2 ;   C123-  C109-  C114-  C127
    91     77     82    284      9     0.00   0.66944   3 ;   C123-  C109-  C114-  H184
    91     77     82    285      9     0.00   0.66944   3 ;   C123-  C109-  C114-  H185
    91     80     71    265      9     0.00   0.66944   3 ;   C123-  C112-  C103-  H166
    91     80     71    266      9     0.00   0.66944   3 ;   C123-  C112-  C103-  H167
    91     86     70    263      9     0.00   0.66944   3 ;   C123-  C118-  C102-  H164
    91     86     70    264      9     0.00   0.66944   3 ;   C123-  C118-  C102-  H165
    91     86     76     95      9     0.00   0.00000   0 ;   C123-  C118-  C108-  C127
    91     94     99    141      9     0.00   0.00000   0 ;   C123-  C126-    N3-   C27
    91     94     99    141      9   180.00   6.27600   1 ;   C123-  C126-    N3-   C27
    91     94     99    348      9   180.00  10.46000   2 ;   C123-  C126-    N3-   H48
    92     79     75    271      9     0.00   0.00000   0 ;   C124-  C111-  C107-  H204
    92     88     73    269      9     0.00   0.66944   3 ;   C124-  C120-  C105-  H170
    92     88     73    270      9     0.00   0.66944   3 ;   C124-  C120-  C105-  H171
    92     88     81    281      9     0.00   0.66944   3 ;   C124-  C120-  C113-  H181
    92     88     81    282      9     0.00   0.66944   3 ;   C124-  C120-  C113-  H182
    92     88     81    283      9     0.00   0.66944   3 ;   C124-  C120-  C113-  H183
    92     88     90    292      9     0.00   0.66944   3 ;   C124-  C120-  C122-  H207
    92     89     87    290      9     0.00   0.66944   3 ;   C124-  C121-  C119-  H188
    92     89     87    291      9     0.00   0.66944   3 ;   C124-  C121-  C119-  H189
    92     89     93    294      9     0.00   0.66944   3 ;   C124-  C121-  C125-  H190
    92     89     93    295      9     0.00   0.66944   3 ;   C124-  C121-  C125-  H191
    92     89     93    296      9     0.00   0.66944   3 ;   C124-  C121-  C125-  H192
    92     89     95     96      9     0.00   0.75312   3 ;   C124-  C121-  C127-  C128
    92     89     95     96      9   180.00   0.83680   1 ;   C124-  C121-  C127-  C128
    92     89     95     96      9   180.00   1.04600   2 ;   C124-  C121-  C127-  C128
    93     89     87    290      9     0.00   0.66944   3 ;   C125-  C121-  C119-  H188
    93     89     87    291      9     0.00   0.66944   3 ;   C125-  C121-  C119-  H189
    93     89     92    293      9     0.00   0.66944   3 ;   C125-  C121-  C124-  H208
    93     89     95     96      9     0.00   0.75312   3 ;   C125-  C121-  C127-  C128
    93     89     95     96      9   180.00   0.83680   1 ;   C125-  C121-  C127-  C128
    93     89     95     96      9   180.00   1.04600   2 ;   C125-  C121-  C127-  C128
    94     91     77    272      9     0.00   0.65084   3 ;   C126-  C123-  C109-  H172
    94     91     77    273      9     0.00   0.65084   3 ;   C126-  C123-  C109-  H173
    94     91     80    279      9     0.00   0.65084   3 ;   C126-  C123-  C112-  H179
    94     91     80    280      9     0.00   0.65084   3 ;   C126-  C123-  C112-  H180
    94     91     86    289      9     0.00   0.65084   3 ;   C126-  C123-  C118-  H206
    94     99    141    142      9     0.00   0.00000   0 ;   C126-    N3-   C27-   C28
    94     99    141    142      9     0.00   2.21752   1 ;   C126-    N3-   C27-   C28
    94     99    141    142      9   180.00   0.62760   3 ;   C126-    N3-   C27-   C28
    94     99    141    142      9   180.00   2.09200   4 ;   C126-    N3-   C27-   C28
    94     99    141    349      9     0.00   0.00000   0 ;   C126-    N3-   C27-   H49
    94     99    141    350      9     0.00   0.00000   0 ;   C126-    N3-   C27-   H50
    95     76     75    271      9   180.00  27.82360   2 ;   C127-  C108-  C107-  H204
    95     76     86    289      9     0.00   0.00000   0 ;   C127-  C108-  C118-  H206
    95     82     77    272      9     0.00   0.66944   3 ;   C127-  C114-  C109-  H172
    95     82     77    273      9     0.00   0.66944   3 ;   C127-  C114-  C109-  H173
    95     89     87    290      9     0.00   0.66944   3 ;   C127-  C121-  C119-  H188
    95     89     87    291      9     0.00   0.66944   3 ;   C127-  C121-  C119-  H189
    95     89     92    293      9     0.00   0.66944   3 ;   C127-  C121-  C124-  H208
    95     89     93    294      9     0.00   0.66944   3 ;   C127-  C121-  C125-  H190
    95     89     93    295      9     0.00   0.66944   3 ;   C127-  C121-  C125-  H191
    95     89     93    296      9     0.00   0.66944   3 ;   C127-  C121-  C125-  H192
    96     95     82    284      9     0.00   0.66944   3 ;   C128-  C127-  C114-  H184
    96     95     82    285      9     0.00   0.66944   3 ;   C128-  C127-  C114-  H185
    97     85     83    286      9     0.00   0.00000   0 ;    O16-  C117-  C115-  H186
    97     85     83    286      9     0.00   1.04600   1 ;    O16-  C117-  C115-  H186
    97     85     83    287      9     0.00   0.00000   0 ;    O16-  C117-  C115-  H187
    97     85     83    287      9     0.00   1.04600   1 ;    O16-  C117-  C115-  H187
    98     94     99    141      9   180.00  10.46000   2 ;    O17-  C126-    N3-   C27
    98     94     99    348      9     0.00   8.36800   1 ;    O17-  C126-    N3-   H48
    98     94     99    348      9   180.00  10.46000   2 ;    O17-  C126-    N3-   H48
    99    141    142    143      9     0.00   0.65084   3 ;     N3-   C27-   C28-    O9
    99    141    142    351      9     0.00   0.65084   3 ;     N3-   C27-   C28-   H51
    99    141    142    352      9     0.00   0.65084   3 ;     N3-   C27-   C28-   H52
   100    101    102    103      9     0.00   1.60247   3 ;     C1-    C2-    O1-    C3
   100    101    102    103      9   180.00   0.41840   2 ;     C1-    C2-    O1-    C3
   101    100     66    373      9     0.00   0.00000   0 ;     C2-    C1-    N2-   H73
   101    102    103    104      9     0.00   1.60247   3 ;     C2-    O1-    C3-    C4
   101    102    103    104      9   180.00   0.41840   2 ;     C2-    O1-    C3-    C4
   101    102    103    305      9     0.00   1.60387   3 ;     C2-    O1-    C3-    H5
   101    102    103    306      9     0.00   1.60387   3 ;     C2-    O1-    C3-    H6
   102    101    100    301      9     0.00   0.00000   0 ;     O1-    C2-    C1-    H1
   102    101    100    301      9     0.00   1.04600   1 ;     O1-    C2-    C1-    H1
   102    101    100    302      9     0.00   0.00000   0 ;     O1-    C2-    C1-    H2
   102    101    100    302      9     0.00   1.04600   1 ;     O1-    C2-    C1-    H2
   102    103    104    105      9     0.00   0.60250   3 ;     O1-    C3-    C4-    O2
   102    103    104    105      9     0.00   4.91620   2 ;     O1-    C3-    C4-    O2
   102    103    104    307      9     0.00   0.00000   0 ;     O1-    C3-    C4-    H7
   102    103    104    307      9     0.00   1.04600   1 ;     O1-    C3-    C4-    H7
   102    103    104    308      9     0.00   0.00000   0 ;     O1-    C3-    C4-    H8
   102    103    104    308      9     0.00   1.04600   1 ;     O1-    C3-    C4-    H8
   103    102    101    303      9     0.00   1.60387   3 ;     C3-    O1-    C2-    H3
   103    102    101    304      9     0.00   1.60387   3 ;     C3-    O1-    C2-    H4
   103    104    105    106      9     0.00   1.60247   3 ;     C3-    C4-    O2-    C5
   103    104    105    106      9   180.00   0.41840   2 ;     C3-    C4-    O2-    C5
   104    105    106    107      9     0.00   1.60247   3 ;     C4-    O2-    C5-    C6
   104    105    106    107      9   180.00   0.41840   2 ;     C4-    O2-    C5-    C6
   104    105    106    309      9     0.00   1.60387   3 ;     C4-    O2-    C5-    H9
   104    105    106    310      9     0.00   1.60387   3 ;     C4-    O2-    C5-   H10
   105    104    103    305      9     0.00   0.00000   0 ;     O2-    C4-    C3-    H5
   105    104    103    305      9     0.00   1.04600   1 ;     O2-    C4-    C3-    H5
   105    104    103    306      9     0.00   0.00000   0 ;     O2-    C4-    C3-    H6
   105    104    103    306      9     0.00   1.04600   1 ;     O2-    C4-    C3-    H6
   105    106    107    108      9     0.00   0.60250   3 ;     O2-    C5-    C6-    O3
   105    106    107    108      9     0.00   4.91620   2 ;     O2-    C5-    C6-    O3
   105    106    107    311      9     0.00   0.00000   0 ;     O2-    C5-    C6-   H11
   105    106    107    311      9     0.00   1.04600   1 ;     O2-    C5-    C6-   H11
   105    106    107    312      9     0.00   0.00000   0 ;     O2-    C5-    C6-   H12
   105    106    107    312      9     0.00   1.04600   1 ;     O2-    C5-    C6-   H12
   106    105    104    307      9     0.00   1.60387   3 ;     C5-    O2-    C4-    H7
   106    105    104    308      9     0.00   1.60387   3 ;     C5-    O2-    C4-    H8
   106    107    108    109      9     0.00   1.60247   3 ;     C5-    C6-    O3-    C7
   106    107    108    109      9   180.00   0.41840   2 ;     C5-    C6-    O3-    C7
   107    108    109    110      9     0.00   1.60247   3 ;     C6-    O3-    C7-    C8
   107    108    109    110      9   180.00   0.41840   2 ;     C6-    O3-    C7-    C8
   107    108    109    313      9     0.00   1.60387   3 ;     C6-    O3-    C7-   H13
   107    108    109    314      9     0.00   1.60387   3 ;     C6-    O3-    C7-   H14
   108    107    106    309      9     0.00   0.00000   0 ;     O3-    C6-    C5-    H9
   108    107    106    309      9     0.00   1.04600   1 ;     O3-    C6-    C5-    H9
   108    107    106    310      9     0.00   0.00000   0 ;     O3-    C6-    C5-   H10
   108    107    106    310      9     0.00   1.04600   1 ;     O3-    C6-    C5-   H10
   108    109    110    111      9     0.00   0.60250   3 ;     O3-    C7-    C8-    O4
   108    109    110    111      9     0.00   4.91620   2 ;     O3-    C7-    C8-    O4
   108    109    110    315      9     0.00   0.00000   0 ;     O3-    C7-    C8-   H15
   108    109    110    315      9     0.00   1.04600   1 ;     O3-    C7-    C8-   H15
   108    109    110    316      9     0.00   0.00000   0 ;     O3-    C7-    C8-   H16
   108    109    110    316      9     0.00   1.04600   1 ;     O3-    C7-    C8-   H16
   109    108    107    311      9     0.00   1.60387   3 ;     C7-    O3-    C6-   H11
   109    108    107    312      9     0.00   1.60387   3 ;     C7-    O3-    C6-   H12
   109    110    111    112      9     0.00   1.60247   3 ;     C7-    C8-    O4-    C9
   109    110    111    112      9   180.00   0.41840   2 ;     C7-    C8-    O4-    C9
   110    111    112    113      9     0.00   1.60247   3 ;     C8-    O4-    C9-   C10
   110    111    112    113      9   180.00   0.41840   2 ;     C8-    O4-    C9-   C10
   110    111    112    317      9     0.00   1.60387   3 ;     C8-    O4-    C9-   H17
   110    111    112    318      9     0.00   1.60387   3 ;     C8-    O4-    C9-   H18
   111    110    109    313      9     0.00   0.00000   0 ;     O4-    C8-    C7-   H13
   111    110    109    313      9     0.00   1.04600   1 ;     O4-    C8-    C7-   H13
   111    110    109    314      9     0.00   0.00000   0 ;     O4-    C8-    C7-   H14
   111    110    109    314      9     0.00   1.04600   1 ;     O4-    C8-    C7-   H14
   111    112    113    114      9     0.00   0.65084   3 ;     O4-    C9-   C10-    N4
   111    112    113    319      9     0.00   0.00000   0 ;     O4-    C9-   C10-   H19
   111    112    113    319      9     0.00   1.04600   1 ;     O4-    C9-   C10-   H19
   111    112    113    320      9     0.00   0.00000   0 ;     O4-    C9-   C10-   H20
   111    112    113    320      9     0.00   1.04600   1 ;     O4-    C9-   C10-   H20
   112    111    110    315      9     0.00   1.60387   3 ;     C9-    O4-    C8-   H15
   112    111    110    316      9     0.00   1.60387   3 ;     C9-    O4-    C8-   H16
   112    113    114    115      9     0.00   0.00000   0 ;     C9-   C10-    N4-    N5
   112    113    114    118      9     0.00   0.00000   0 ;     C9-   C10-    N4-   C12
   113    114    115    116      9   180.00  20.08320   2 ;    C10-    N4-    N5-    N6
   113    114    118    117      9   180.00   7.11280   2 ;    C10-    N4-   C12-   C11
   113    114    118    321      9   180.00   7.11280   2 ;    C10-    N4-   C12-   H21
   114    113    112    317      9     0.00   0.65084   3 ;     N4-   C10-    C9-   H17
   114    113    112    318      9     0.00   0.65084   3 ;     N4-   C10-    C9-   H18
   114    115    116    117      9   180.00  16.73600   2 ;     N4-    N5-    N6-   C11
   114    118    117    116      9   180.00  16.73600   2 ;     N4-   C12-   C11-    N6
   114    118    117    119      9   180.00  16.73600   2 ;     N4-   C12-   C11-   C13
   115    114    113    319      9     0.00   0.00000   0 ;     N5-    N4-   C10-   H19
   115    114    113    320      9     0.00   0.00000   0 ;     N5-    N4-   C10-   H20
   115    114    118    117      9   180.00   7.11280   2 ;     N5-    N4-   C12-   C11
   115    114    118    321      9   180.00   7.11280   2 ;     N5-    N4-   C12-   H21
   115    116    117    118      9   180.00  19.87400   2 ;     N5-    N6-   C11-   C12
   115    116    117    119      9   180.00  19.87400   2 ;     N5-    N6-   C11-   C13
   116    115    114    118      9   180.00  20.08320   2 ;     N6-    N5-    N4-   C12
   116    117    118    321      9   180.00  16.73600   2 ;     N6-   C11-   C12-   H21
   116    117    119    120      9     0.00   0.00000   0 ;     N6-   C11-   C13-    N7
   116    117    119    322      9     0.00   0.00000   0 ;     N6-   C11-   C13-   H22
   116    117    119    323      9     0.00   0.00000   0 ;     N6-   C11-   C13-   H23
   117    119    120    140      9     0.00   1.25520   3 ;    C11-   C13-    N7-   C26
   117    119    120    160      9     0.00   1.25520   3 ;    C11-   C13-    N7-   C39
   118    114    113    319      9     0.00   0.00000   0 ;    C12-    N4-   C10-   H19
   118    114    113    320      9     0.00   0.00000   0 ;    C12-    N4-   C10-   H20
   118    117    119    120      9     0.00   0.00000   0 ;    C12-   C11-   C13-    N7
   118    117    119    322      9     0.00   0.00000   0 ;    C12-   C11-   C13-   H22
   118    117    119    323      9     0.00   0.00000   0 ;    C12-   C11-   C13-   H23
   119    117    118    321      9   180.00  16.73600   2 ;    C13-   C11-   C12-   H21
   119    120    140    138      9     0.00   1.25520   3 ;    C13-    N7-   C26-   C24
   119    120    140    346      9     0.00   1.25520   3 ;    C13-    N7-   C26-   H46
   119    120    140    347      9     0.00   1.25520   3 ;    C13-    N7-   C26-   H47
   119    120    160    158      9     0.00   1.25520   3 ;    C13-    N7-   C39-   C37
   119    120    160    370      9     0.00   1.25520   3 ;    C13-    N7-   C39-   H70
   119    120    160    371      9     0.00   1.25520   3 ;    C13-    N7-   C39-   H71
   120    140    138    137      9     0.00   0.00000   0 ;     N7-   C26-   C24-   N10
   120    140    138    139      9     0.00   0.00000   0 ;     N7-   C26-   C24-   C25
   120    160    158    157      9     0.00   0.00000   0 ;     N7-   C39-   C37-   N13
   120    160    158    159      9     0.00   0.00000   0 ;     N7-   C39-   C37-   C38
   121    122    123    124      9     0.00   1.60247   3 ;    C14-   C15-    O5-   C16
   121    122    123    124      9   180.00   0.41840   2 ;    C14-   C15-    O5-   C16
   122    121     33    324      9     0.00   0.00000   0 ;    C15-   C14-    N1-   H24
   122    123    124    125      9     0.00   1.60247   3 ;    C15-    O5-   C16-   C17
   122    123    124    125      9   180.00   0.41840   2 ;    C15-    O5-   C16-   C17
   122    123    124    329      9     0.00   1.60387   3 ;    C15-    O5-   C16-   H29
   122    123    124    330      9     0.00   1.60387   3 ;    C15-    O5-   C16-   H30
   123    122    121    325      9     0.00   0.00000   0 ;     O5-   C15-   C14-   H25
   123    122    121    325      9     0.00   1.04600   1 ;     O5-   C15-   C14-   H25
   123    122    121    326      9     0.00   0.00000   0 ;     O5-   C15-   C14-   H26
   123    122    121    326      9     0.00   1.04600   1 ;     O5-   C15-   C14-   H26
   123    124    125    126      9     0.00   0.60250   3 ;     O5-   C16-   C17-    O6
   123    124    125    126      9     0.00   4.91620   2 ;     O5-   C16-   C17-    O6
   123    124    125    331      9     0.00   0.00000   0 ;     O5-   C16-   C17-   H31
   123    124    125    331      9     0.00   1.04600   1 ;     O5-   C16-   C17-   H31
   123    124    125    332      9     0.00   0.00000   0 ;     O5-   C16-   C17-   H32
   123    124    125    332      9     0.00   1.04600   1 ;     O5-   C16-   C17-   H32
   124    123    122    327      9     0.00   1.60387   3 ;    C16-    O5-   C15-   H27
   124    123    122    328      9     0.00   1.60387   3 ;    C16-    O5-   C15-   H28
   124    125    126    127      9     0.00   1.60247   3 ;    C16-   C17-    O6-   C18
   124    125    126    127      9   180.00   0.41840   2 ;    C16-   C17-    O6-   C18
   125    126    127    128      9     0.00   1.60247   3 ;    C17-    O6-   C18-   C19
   125    126    127    128      9   180.00   0.41840   2 ;    C17-    O6-   C18-   C19
   125    126    127    333      9     0.00   1.60387   3 ;    C17-    O6-   C18-   H33
   125    126    127    334      9     0.00   1.60387   3 ;    C17-    O6-   C18-   H34
   126    125    124    329      9     0.00   0.00000   0 ;     O6-   C17-   C16-   H29
   126    125    124    329      9     0.00   1.04600   1 ;     O6-   C17-   C16-   H29
   126    125    124    330      9     0.00   0.00000   0 ;     O6-   C17-   C16-   H30
   126    125    124    330      9     0.00   1.04600   1 ;     O6-   C17-   C16-   H30
   126    127    128    129      9     0.00   0.60250   3 ;     O6-   C18-   C19-    O7
   126    127    128    129      9     0.00   4.91620   2 ;     O6-   C18-   C19-    O7
   126    127    128    335      9     0.00   0.00000   0 ;     O6-   C18-   C19-   H35
   126    127    128    335      9     0.00   1.04600   1 ;     O6-   C18-   C19-   H35
   126    127    128    336      9     0.00   0.00000   0 ;     O6-   C18-   C19-   H36
   126    127    128    336      9     0.00   1.04600   1 ;     O6-   C18-   C19-   H36
   127    126    125    331      9     0.00   1.60387   3 ;    C18-    O6-   C17-   H31
   127    126    125    332      9     0.00   1.60387   3 ;    C18-    O6-   C17-   H32
   127    128    129    130      9     0.00   1.60247   3 ;    C18-   C19-    O7-   C20
   127    128    129    130      9   180.00   0.41840   2 ;    C18-   C19-    O7-   C20
   128    129    130    131      9     0.00   1.60247   3 ;    C19-    O7-   C20-   C21
   128    129    130    131      9   180.00   0.41840   2 ;    C19-    O7-   C20-   C21
   128    129    130    337      9     0.00   1.60387   3 ;    C19-    O7-   C20-   H37
   128    129    130    338      9     0.00   1.60387   3 ;    C19-    O7-   C20-   H38
   129    128    127    333      9     0.00   0.00000   0 ;     O7-   C19-   C18-   H33
   129    128    127    333      9     0.00   1.04600   1 ;     O7-   C19-   C18-   H33
   129    128    127    334      9     0.00   0.00000   0 ;     O7-   C19-   C18-   H34
   129    128    127    334      9     0.00   1.04600   1 ;     O7-   C19-   C18-   H34
   129    130    131    132      9     0.00   0.60250   3 ;     O7-   C20-   C21-    O8
   129    130    131    132      9     0.00   4.91620   2 ;     O7-   C20-   C21-    O8
   129    130    131    339      9     0.00   0.00000   0 ;     O7-   C20-   C21-   H39
   129    130    131    339      9     0.00   1.04600   1 ;     O7-   C20-   C21-   H39
   129    130    131    340      9     0.00   0.00000   0 ;     O7-   C20-   C21-   H40
   129    130    131    340      9     0.00   1.04600   1 ;     O7-   C20-   C21-   H40
   130    129    128    335      9     0.00   1.60387   3 ;    C20-    O7-   C19-   H35
   130    129    128    336      9     0.00   1.60387   3 ;    C20-    O7-   C19-   H36
   130    131    132    133      9     0.00   1.60247   3 ;    C20-   C21-    O8-   C22
   130    131    132    133      9   180.00   0.41840   2 ;    C20-   C21-    O8-   C22
   131    132    133    134      9     0.00   1.60247   3 ;    C21-    O8-   C22-   C23
   131    132    133    134      9   180.00   0.41840   2 ;    C21-    O8-   C22-   C23
   131    132    133    341      9     0.00   1.60387   3 ;    C21-    O8-   C22-   H41
   131    132    133    342      9     0.00   1.60387   3 ;    C21-    O8-   C22-   H42
   132    131    130    337      9     0.00   0.00000   0 ;     O8-   C21-   C20-   H37
   132    131    130    337      9     0.00   1.04600   1 ;     O8-   C21-   C20-   H37
   132    131    130    338      9     0.00   0.00000   0 ;     O8-   C21-   C20-   H38
   132    131    130    338      9     0.00   1.04600   1 ;     O8-   C21-   C20-   H38
   132    133    134    135      9     0.00   0.65084   3 ;     O8-   C22-   C23-    N8
   132    133    134    343      9     0.00   0.00000   0 ;     O8-   C22-   C23-   H43
   132    133    134    343      9     0.00   1.04600   1 ;     O8-   C22-   C23-   H43
   132    133    134    344      9     0.00   0.00000   0 ;     O8-   C22-   C23-   H44
   132    133    134    344      9     0.00   1.04600   1 ;     O8-   C22-   C23-   H44
   133    132    131    339      9     0.00   1.60387   3 ;    C22-    O8-   C21-   H39
   133    132    131    340      9     0.00   1.60387   3 ;    C22-    O8-   C21-   H40
   133    134    135    136      9     0.00   0.00000   0 ;    C22-   C23-    N8-    N9
   133    134    135    139      9     0.00   0.00000   0 ;    C22-   C23-    N8-   C25
   134    135    136    137      9   180.00  20.08320   2 ;    C23-    N8-    N9-   N10
   134    135    139    138      9   180.00   7.11280   2 ;    C23-    N8-   C25-   C24
   134    135    139    345      9   180.00   7.11280   2 ;    C23-    N8-   C25-   H45
   135    134    133    341      9     0.00   0.65084   3 ;     N8-   C23-   C22-   H41
   135    134    133    342      9     0.00   0.65084   3 ;     N8-   C23-   C22-   H42
   135    136    137    138      9   180.00  16.73600   2 ;     N8-    N9-   N10-   C24
   135    139    138    137      9   180.00  16.73600   2 ;     N8-   C25-   C24-   N10
   135    139    138    140      9   180.00  16.73600   2 ;     N8-   C25-   C24-   C26
   136    135    134    343      9     0.00   0.00000   0 ;     N9-    N8-   C23-   H43
   136    135    134    344      9     0.00   0.00000   0 ;     N9-    N8-   C23-   H44
   136    135    139    138      9   180.00   7.11280   2 ;     N9-    N8-   C25-   C24
   136    135    139    345      9   180.00   7.11280   2 ;     N9-    N8-   C25-   H45
   136    137    138    139      9   180.00  19.87400   2 ;     N9-   N10-   C24-   C25
   136    137    138    140      9   180.00  19.87400   2 ;     N9-   N10-   C24-   C26
   137    136    135    139      9   180.00  20.08320   2 ;    N10-    N9-    N8-   C25
   137    138    139    345      9   180.00  16.73600   2 ;    N10-   C24-   C25-   H45
   137    138    140    346      9     0.00   0.00000   0 ;    N10-   C24-   C26-   H46
   137    138    140    347      9     0.00   0.00000   0 ;    N10-   C24-   C26-   H47
   138    140    120    160      9     0.00   1.25520   3 ;    C24-   C26-    N7-   C39
   139    135    134    343      9     0.00   0.00000   0 ;    C25-    N8-   C23-   H43
   139    135    134    344      9     0.00   0.00000   0 ;    C25-    N8-   C23-   H44
   139    138    140    346      9     0.00   0.00000   0 ;    C25-   C24-   C26-   H46
   139    138    140    347      9     0.00   0.00000   0 ;    C25-   C24-   C26-   H47
   140    120    119    322      9     0.00   1.25520   3 ;    C26-    N7-   C13-   H22
   140    120    119    323      9     0.00   1.25520   3 ;    C26-    N7-   C13-   H23
   140    120    160    158      9     0.00   1.25520   3 ;    C26-    N7-   C39-   C37
   140    120    160    370      9     0.00   1.25520   3 ;    C26-    N7-   C39-   H70
   140    120    160    371      9     0.00   1.25520   3 ;    C26-    N7-   C39-   H71
   140    138    139    345      9   180.00  16.73600   2 ;    C26-   C24-   C25-   H45
   141    142    143    144      9     0.00   1.60247   3 ;    C27-   C28-    O9-   C29
   141    142    143    144      9   180.00   0.41840   2 ;    C27-   C28-    O9-   C29
   142    141     99    348      9     0.00   0.00000   0 ;    C28-   C27-    N3-   H48
   142    143    144    145      9     0.00   1.60247   3 ;    C28-    O9-   C29-   C30
   142    143    144    145      9   180.00   0.41840   2 ;    C28-    O9-   C29-   C30
   142    143    144    353      9     0.00   1.60387   3 ;    C28-    O9-   C29-   H53
   142    143    144    354      9     0.00   1.60387   3 ;    C28-    O9-   C29-   H54
   143    142    141    349      9     0.00   0.00000   0 ;     O9-   C28-   C27-   H49
   143    142    141    349      9     0.00   1.04600   1 ;     O9-   C28-   C27-   H49
   143    142    141    350      9     0.00   0.00000   0 ;     O9-   C28-   C27-   H50
   143    142    141    350      9     0.00   1.04600   1 ;     O9-   C28-   C27-   H50
   143    144    145    146      9     0.00   0.60250   3 ;     O9-   C29-   C30-   O10
   143    144    145    146      9     0.00   4.91620   2 ;     O9-   C29-   C30-   O10
   143    144    145    355      9     0.00   0.00000   0 ;     O9-   C29-   C30-   H55
   143    144    145    355      9     0.00   1.04600   1 ;     O9-   C29-   C30-   H55
   143    144    145    356      9     0.00   0.00000   0 ;     O9-   C29-   C30-   H56
   143    144    145    356      9     0.00   1.04600   1 ;     O9-   C29-   C30-   H56
   144    143    142    351      9     0.00   1.60387   3 ;    C29-    O9-   C28-   H51
   144    143    142    352      9     0.00   1.60387   3 ;    C29-    O9-   C28-   H52
   144    145    146    147      9     0.00   1.60247   3 ;    C29-   C30-   O10-   C31
   144    145    146    147      9   180.00   0.41840   2 ;    C29-   C30-   O10-   C31
   145    146    147    148      9     0.00   1.60247   3 ;    C30-   O10-   C31-   C32
   145    146    147    148      9   180.00   0.41840   2 ;    C30-   O10-   C31-   C32
   145    146    147    357      9     0.00   1.60387   3 ;    C30-   O10-   C31-   H57
   145    146    147    358      9     0.00   1.60387   3 ;    C30-   O10-   C31-   H58
   146    145    144    353      9     0.00   0.00000   0 ;    O10-   C30-   C29-   H53
   146    145    144    353      9     0.00   1.04600   1 ;    O10-   C30-   C29-   H53
   146    145    144    354      9     0.00   0.00000   0 ;    O10-   C30-   C29-   H54
   146    145    144    354      9     0.00   1.04600   1 ;    O10-   C30-   C29-   H54
   146    147    148    149      9     0.00   0.60250   3 ;    O10-   C31-   C32-   O11
   146    147    148    149      9     0.00   4.91620   2 ;    O10-   C31-   C32-   O11
   146    147    148    359      9     0.00   0.00000   0 ;    O10-   C31-   C32-   H59
   146    147    148    359      9     0.00   1.04600   1 ;    O10-   C31-   C32-   H59
   146    147    148    360      9     0.00   0.00000   0 ;    O10-   C31-   C32-   H60
   146    147    148    360      9     0.00   1.04600   1 ;    O10-   C31-   C32-   H60
   147    146    145    355      9     0.00   1.60387   3 ;    C31-   O10-   C30-   H55
   147    146    145    356      9     0.00   1.60387   3 ;    C31-   O10-   C30-   H56
   147    148    149    150      9     0.00   1.60247   3 ;    C31-   C32-   O11-   C33
   147    148    149    150      9   180.00   0.41840   2 ;    C31-   C32-   O11-   C33
   148    149    150    151      9     0.00   1.60247   3 ;    C32-   O11-   C33-   C34
   148    149    150    151      9   180.00   0.41840   2 ;    C32-   O11-   C33-   C34
   148    149    150    361      9     0.00   1.60387   3 ;    C32-   O11-   C33-   H61
   148    149    150    362      9     0.00   1.60387   3 ;    C32-   O11-   C33-   H62
   149    148    147    357      9     0.00   0.00000   0 ;    O11-   C32-   C31-   H57
   149    148    147    357      9     0.00   1.04600   1 ;    O11-   C32-   C31-   H57
   149    148    147    358      9     0.00   0.00000   0 ;    O11-   C32-   C31-   H58
   149    148    147    358      9     0.00   1.04600   1 ;    O11-   C32-   C31-   H58
   149    150    151    152      9     0.00   0.60250   3 ;    O11-   C33-   C34-   O12
   149    150    151    152      9     0.00   4.91620   2 ;    O11-   C33-   C34-   O12
   149    150    151    363      9     0.00   0.00000   0 ;    O11-   C33-   C34-   H63
   149    150    151    363      9     0.00   1.04600   1 ;    O11-   C33-   C34-   H63
   149    150    151    364      9     0.00   0.00000   0 ;    O11-   C33-   C34-   H64
   149    150    151    364      9     0.00   1.04600   1 ;    O11-   C33-   C34-   H64
   150    149    148    359      9     0.00   1.60387   3 ;    C33-   O11-   C32-   H59
   150    149    148    360      9     0.00   1.60387   3 ;    C33-   O11-   C32-   H60
   150    151    152    153      9     0.00   1.60247   3 ;    C33-   C34-   O12-   C35
   150    151    152    153      9   180.00   0.41840   2 ;    C33-   C34-   O12-   C35
   151    152    153    154      9     0.00   1.60247   3 ;    C34-   O12-   C35-   C36
   151    152    153    154      9   180.00   0.41840   2 ;    C34-   O12-   C35-   C36
   151    152    153    365      9     0.00   1.60387   3 ;    C34-   O12-   C35-   H65
   151    152    153    366      9     0.00   1.60387   3 ;    C34-   O12-   C35-   H66
   152    151    150    361      9     0.00   0.00000   0 ;    O12-   C34-   C33-   H61
   152    151    150    361      9     0.00   1.04600   1 ;    O12-   C34-   C33-   H61
   152    151    150    362      9     0.00   0.00000   0 ;    O12-   C34-   C33-   H62
   152    151    150    362      9     0.00   1.04600   1 ;    O12-   C34-   C33-   H62
   152    153    154    155      9     0.00   0.65084   3 ;    O12-   C35-   C36-   N11
   152    153    154    367      9     0.00   0.00000   0 ;    O12-   C35-   C36-   H67
   152    153    154    367      9     0.00   1.04600   1 ;    O12-   C35-   C36-   H67
   152    153    154    368      9     0.00   0.00000   0 ;    O12-   C35-   C36-   H68
   152    153    154    368      9     0.00   1.04600   1 ;    O12-   C35-   C36-   H68
   153    152    151    363      9     0.00   1.60387   3 ;    C35-   O12-   C34-   H63
   153    152    151    364      9     0.00   1.60387   3 ;    C35-   O12-   C34-   H64
   153    154    155    156      9     0.00   0.00000   0 ;    C35-   C36-   N11-   N12
   153    154    155    159      9     0.00   0.00000   0 ;    C35-   C36-   N11-   C38
   154    155    156    157      9   180.00  20.08320   2 ;    C36-   N11-   N12-   N13
   154    155    159    158      9   180.00   7.11280   2 ;    C36-   N11-   C38-   C37
   154    155    159    369      9   180.00   7.11280   2 ;    C36-   N11-   C38-   H69
   155    154    153    365      9     0.00   0.65084   3 ;    N11-   C36-   C35-   H65
   155    154    153    366      9     0.00   0.65084   3 ;    N11-   C36-   C35-   H66
   155    156    157    158      9   180.00  16.73600   2 ;    N11-   N12-   N13-   C37
   155    159    158    157      9   180.00  16.73600   2 ;    N11-   C38-   C37-   N13
   155    159    158    160      9   180.00  16.73600   2 ;    N11-   C38-   C37-   C39
   156    155    154    367      9     0.00   0.00000   0 ;    N12-   N11-   C36-   H67
   156    155    154    368      9     0.00   0.00000   0 ;    N12-   N11-   C36-   H68
   156    155    159    158      9   180.00   7.11280   2 ;    N12-   N11-   C38-   C37
   156    155    159    369      9   180.00   7.11280   2 ;    N12-   N11-   C38-   H69
   156    157    158    159      9   180.00  19.87400   2 ;    N12-   N13-   C37-   C38
   156    157    158    160      9   180.00  19.87400   2 ;    N12-   N13-   C37-   C39
   157    156    155    159      9   180.00  20.08320   2 ;    N13-   N12-   N11-   C38
   157    158    159    369      9   180.00  16.73600   2 ;    N13-   C37-   C38-   H69
   157    158    160    370      9     0.00   0.00000   0 ;    N13-   C37-   C39-   H70
   157    158    160    371      9     0.00   0.00000   0 ;    N13-   C37-   C39-   H71
   159    155    154    367      9     0.00   0.00000   0 ;    C38-   N11-   C36-   H67
   159    155    154    368      9     0.00   0.00000   0 ;    C38-   N11-   C36-   H68
   159    158    160    370      9     0.00   0.00000   0 ;    C38-   C37-   C39-   H70
   159    158    160    371      9     0.00   0.00000   0 ;    C38-   C37-   C39-   H71
   160    120    119    322      9     0.00   1.25520   3 ;    C39-    N7-   C13-   H22
   160    120    119    323      9     0.00   1.25520   3 ;    C39-    N7-   C13-   H23
   160    120    140    346      9     0.00   1.25520   3 ;    C39-    N7-   C26-   H46
   160    120    140    347      9     0.00   1.25520   3 ;    C39-    N7-   C26-   H47
   160    158    159    369      9   180.00  16.73600   2 ;    C39-   C37-   C38-   H69
   161      1      8      2      9     0.00   0.66944   3 ;   HHXT-     C-   C46-   C40
   161      1      8      4      9     0.00   0.66944   3 ;   HHXT-     C-   C46-   C42
   161      1      8      5      9     0.00   0.66944   3 ;   HHXT-     C-   C46-   C43
   162      1      8      2      9     0.00   0.66944   3 ;    H74-     C-   C46-   C40
   162      1      8      4      9     0.00   0.66944   3 ;    H74-     C-   C46-   C42
   162      1      8      5      9     0.00   0.66944   3 ;    H74-     C-   C46-   C43
   163      1      8      2      9     0.00   0.66944   3 ;    H75-     C-   C46-   C40
   163      1      8      4      9     0.00   0.66944   3 ;    H75-     C-   C46-   C42
   163      1      8      5      9     0.00   0.66944   3 ;    H75-     C-   C46-   C43
   170      4     20    196      9     0.00   0.62760   3 ;    H82-   C42-   C58-  H197
   171      4     20    196      9     0.00   0.62760   3 ;    H83-   C42-   C58-  H197
   172      5     14    186      9     0.00   0.62760   3 ;    H84-   C43-   C52-   H97
   172      5     14    187      9     0.00   0.62760   3 ;    H84-   C43-   C52-   H98
   173      5     14    186      9     0.00   0.62760   3 ;    H85-   C43-   C52-   H97
   173      5     14    187      9     0.00   0.62760   3 ;    H85-   C43-   C52-   H98
   174      6     21    197      9     0.00   0.62760   3 ;    H86-   C44-   C59-  H106
   174      6     21    198      9     0.00   0.62760   3 ;    H86-   C44-   C59-  H107
   174      6     24    199      9     0.00   0.62760   3 ;    H86-   C44-   C62-  H198
   175      6     21    197      9     0.00   0.62760   3 ;    H87-   C44-   C59-  H106
   175      6     21    198      9     0.00   0.62760   3 ;    H87-   C44-   C59-  H107
   175      6     24    199      9     0.00   0.62760   3 ;    H87-   C44-   C62-  H198
   176      7     17    193      9     0.00   0.62760   3 ;    H88-   C45-   C55-  H104
   176      7     17    194      9     0.00   0.62760   3 ;    H88-   C45-   C55-  H105
   177      7     17    193      9     0.00   0.62760   3 ;    H89-   C45-   C55-  H104
   177      7     17    194      9     0.00   0.62760   3 ;    H89-   C45-   C55-  H105
   178      9     13    184      9     0.00   0.00000   0 ;    HXT-   C47-   C51-   H95
   178      9     13    185      9     0.00   0.00000   0 ;    HXT-   C47-   C51-   H96
   179     11     16    191      9     0.00   0.62760   3 ;    H90-   C49-   C54-  H102
   179     11     16    192      9     0.00   0.62760   3 ;    H90-   C49-   C54-  H103
   180     11     16    191      9     0.00   0.62760   3 ;    H91-   C49-   C54-  H102
   180     11     16    192      9     0.00   0.62760   3 ;    H91-   C49-   C54-  H103
   184     13     26    200      9     0.00   0.62760   3 ;    H95-   C51-   C64-  H199
   185     13     26    200      9     0.00   0.62760   3 ;    H96-   C51-   C64-  H199
   193     17     19    195      9     0.00   0.65084   3 ;   H104-   C55-   C57-  H196
   194     17     19    195      9     0.00   0.65084   3 ;   H105-   C55-   C57-  H196
   195     19     31    207      9     0.00   0.69733   3 ;   H196-   C57-     O-    HO
   217     37     53    242      9     0.00   0.62760   3 ;   H123-   C72-   C88-  H201
   218     37     53    242      9     0.00   0.62760   3 ;   H124-   C72-   C88-  H201
   219     38     47    232      9     0.00   0.62760   3 ;   H125-   C73-   C82-  H138
   219     38     47    233      9     0.00   0.62760   3 ;   H125-   C73-   C82-  H139
   220     38     47    232      9     0.00   0.62760   3 ;   H126-   C73-   C82-  H138
   220     38     47    233      9     0.00   0.62760   3 ;   H126-   C73-   C82-  H139
   221     39     54    243      9     0.00   0.62760   3 ;   H127-   C74-   C89-  H147
   221     39     54    244      9     0.00   0.62760   3 ;   H127-   C74-   C89-  H148
   221     39     57    245      9     0.00   0.62760   3 ;   H127-   C74-   C92-  H202
   222     39     54    243      9     0.00   0.62760   3 ;   H128-   C74-   C89-  H147
   222     39     54    244      9     0.00   0.62760   3 ;   H128-   C74-   C89-  H148
   222     39     57    245      9     0.00   0.62760   3 ;   H128-   C74-   C92-  H202
   223     40     50    239      9     0.00   0.62760   3 ;   H129-   C75-   C85-  H145
   223     40     50    240      9     0.00   0.62760   3 ;   H129-   C75-   C85-  H146
   224     40     50    239      9     0.00   0.62760   3 ;   H130-   C75-   C85-  H145
   224     40     50    240      9     0.00   0.62760   3 ;   H130-   C75-   C85-  H146
   225     44     49    237      9     0.00   0.62760   3 ;   H131-   C79-   C84-  H143
   225     44     49    238      9     0.00   0.62760   3 ;   H131-   C79-   C84-  H144
   226     44     49    237      9     0.00   0.62760   3 ;   H132-   C79-   C84-  H143
   226     44     49    238      9     0.00   0.62760   3 ;   H132-   C79-   C84-  H144
   230     46     42    372      9     0.00   0.00000   0 ;   H136-   C81-   C77-   H72
   230     46     59    246      9     0.00   0.62760   3 ;   H136-   C81-   C94-  H203
   231     46     42    372      9     0.00   0.00000   0 ;   H137-   C81-   C77-   H72
   231     46     59    246      9     0.00   0.62760   3 ;   H137-   C81-   C94-  H203
   239     50     52    241      9     0.00   0.65084   3 ;   H145-   C85-   C87-  H200
   240     50     52    241      9     0.00   0.65084   3 ;   H146-   C85-   C87-  H200
   241     52     64    253      9     0.00   0.69733   3 ;   H200-   C87-   O14-  H209
   263     70     86    289      9     0.00   0.62760   3 ;   H164-  C102-  C118-  H206
   264     70     86    289      9     0.00   0.62760   3 ;   H165-  C102-  C118-  H206
   265     71     80    279      9     0.00   0.62760   3 ;   H166-  C103-  C112-  H179
   265     71     80    280      9     0.00   0.62760   3 ;   H166-  C103-  C112-  H180
   266     71     80    279      9     0.00   0.62760   3 ;   H167-  C103-  C112-  H179
   266     71     80    280      9     0.00   0.62760   3 ;   H167-  C103-  C112-  H180
   267     72     87    290      9     0.00   0.62760   3 ;   H168-  C104-  C119-  H188
   267     72     87    291      9     0.00   0.62760   3 ;   H168-  C104-  C119-  H189
   267     72     90    292      9     0.00   0.62760   3 ;   H168-  C104-  C122-  H207
   268     72     87    290      9     0.00   0.62760   3 ;   H169-  C104-  C119-  H188
   268     72     87    291      9     0.00   0.62760   3 ;   H169-  C104-  C119-  H189
   268     72     90    292      9     0.00   0.62760   3 ;   H169-  C104-  C122-  H207
   269     73     83    286      9     0.00   0.62760   3 ;   H170-  C105-  C115-  H186
   269     73     83    287      9     0.00   0.62760   3 ;   H170-  C105-  C115-  H187
   270     73     83    286      9     0.00   0.62760   3 ;   H171-  C105-  C115-  H186
   270     73     83    287      9     0.00   0.62760   3 ;   H171-  C105-  C115-  H187
   271     75     79    277      9     0.00   0.00000   0 ;   H204-  C107-  C111-  H177
   271     75     79    278      9     0.00   0.00000   0 ;   H204-  C107-  C111-  H178
   272     77     82    284      9     0.00   0.62760   3 ;   H172-  C109-  C114-  H184
   272     77     82    285      9     0.00   0.62760   3 ;   H172-  C109-  C114-  H185
   273     77     82    284      9     0.00   0.62760   3 ;   H173-  C109-  C114-  H184
   273     77     82    285      9     0.00   0.62760   3 ;   H173-  C109-  C114-  H185
   277     79     92    293      9     0.00   0.62760   3 ;   H177-  C111-  C124-  H208
   278     79     92    293      9     0.00   0.62760   3 ;   H178-  C111-  C124-  H208
   286     83     85    288      9     0.00   0.65084   3 ;   H186-  C115-  C117-  H205
   287     83     85    288      9     0.00   0.65084   3 ;   H187-  C115-  C117-  H205
   288     85     97    300      9     0.00   0.69733   3 ;   H205-  C117-   O16-  H210
   301    100     66    373      9     0.00   0.00000   0 ;     H1-    C1-    N2-   H73
   301    100    101    303      9     0.00   0.65084   3 ;     H1-    C1-    C2-    H3
   301    100    101    304      9     0.00   0.65084   3 ;     H1-    C1-    C2-    H4
   302    100     66    373      9     0.00   0.00000   0 ;     H2-    C1-    N2-   H73
   302    100    101    303      9     0.00   0.65084   3 ;     H2-    C1-    C2-    H3
   302    100    101    304      9     0.00   0.65084   3 ;     H2-    C1-    C2-    H4
   305    103    104    307      9     0.00   0.65084   3 ;     H5-    C3-    C4-    H7
   305    103    104    308      9     0.00   0.65084   3 ;     H5-    C3-    C4-    H8
   306    103    104    307      9     0.00   0.65084   3 ;     H6-    C3-    C4-    H7
   306    103    104    308      9     0.00   0.65084   3 ;     H6-    C3-    C4-    H8
   309    106    107    311      9     0.00   0.65084   3 ;     H9-    C5-    C6-   H11
   309    106    107    312      9     0.00   0.65084   3 ;     H9-    C5-    C6-   H12
   310    106    107    311      9     0.00   0.65084   3 ;    H10-    C5-    C6-   H11
   310    106    107    312      9     0.00   0.65084   3 ;    H10-    C5-    C6-   H12
   313    109    110    315      9     0.00   0.65084   3 ;    H13-    C7-    C8-   H15
   313    109    110    316      9     0.00   0.65084   3 ;    H13-    C7-    C8-   H16
   314    109    110    315      9     0.00   0.65084   3 ;    H14-    C7-    C8-   H15
   314    109    110    316      9     0.00   0.65084   3 ;    H14-    C7-    C8-   H16
   317    112    113    319      9     0.00   0.65084   3 ;    H17-    C9-   C10-   H19
   317    112    113    320      9     0.00   0.65084   3 ;    H17-    C9-   C10-   H20
   318    112    113    319      9     0.00   0.65084   3 ;    H18-    C9-   C10-   H19
   318    112    113    320      9     0.00   0.65084   3 ;    H18-    C9-   C10-   H20
   324     33    121    325      9     0.00   0.00000   0 ;    H24-    N1-   C14-   H25
   324     33    121    326      9     0.00   0.00000   0 ;    H24-    N1-   C14-   H26
   325    121    122    327      9     0.00   0.65084   3 ;    H25-   C14-   C15-   H27
   325    121    122    328      9     0.00   0.65084   3 ;    H25-   C14-   C15-   H28
   326    121    122    327      9     0.00   0.65084   3 ;    H26-   C14-   C15-   H27
   326    121    122    328      9     0.00   0.65084   3 ;    H26-   C14-   C15-   H28
   329    124    125    331      9     0.00   0.65084   3 ;    H29-   C16-   C17-   H31
   329    124    125    332      9     0.00   0.65084   3 ;    H29-   C16-   C17-   H32
   330    124    125    331      9     0.00   0.65084   3 ;    H30-   C16-   C17-   H31
   330    124    125    332      9     0.00   0.65084   3 ;    H30-   C16-   C17-   H32
   333    127    128    335      9     0.00   0.65084   3 ;    H33-   C18-   C19-   H35
   333    127    128    336      9     0.00   0.65084   3 ;    H33-   C18-   C19-   H36
   334    127    128    335      9     0.00   0.65084   3 ;    H34-   C18-   C19-   H35
   334    127    128    336      9     0.00   0.65084   3 ;    H34-   C18-   C19-   H36
   337    130    131    339      9     0.00   0.65084   3 ;    H37-   C20-   C21-   H39
   337    130    131    340      9     0.00   0.65084   3 ;    H37-   C20-   C21-   H40
   338    130    131    339      9     0.00   0.65084   3 ;    H38-   C20-   C21-   H39
   338    130    131    340      9     0.00   0.65084   3 ;    H38-   C20-   C21-   H40
   341    133    134    343      9     0.00   0.65084   3 ;    H41-   C22-   C23-   H43
   341    133    134    344      9     0.00   0.65084   3 ;    H41-   C22-   C23-   H44
   342    133    134    343      9     0.00   0.65084   3 ;    H42-   C22-   C23-   H43
   342    133    134    344      9     0.00   0.65084   3 ;    H42-   C22-   C23-   H44
   348     99    141    349      9     0.00   0.00000   0 ;    H48-    N3-   C27-   H49
   348     99    141    350      9     0.00   0.00000   0 ;    H48-    N3-   C27-   H50
   349    141    142    351      9     0.00   0.65084   3 ;    H49-   C27-   C28-   H51
   349    141    142    352      9     0.00   0.65084   3 ;    H49-   C27-   C28-   H52
   350    141    142    351      9     0.00   0.65084   3 ;    H50-   C27-   C28-   H51
   350    141    142    352      9     0.00   0.65084   3 ;    H50-   C27-   C28-   H52
   353    144    145    355      9     0.00   0.65084   3 ;    H53-   C29-   C30-   H55
   353    144    145    356      9     0.00   0.65084   3 ;    H53-   C29-   C30-   H56
   354    144    145    355      9     0.00   0.65084   3 ;    H54-   C29-   C30-   H55
   354    144    145    356      9     0.00   0.65084   3 ;    H54-   C29-   C30-   H56
   357    147    148    359      9     0.00   0.65084   3 ;    H57-   C31-   C32-   H59
   357    147    148    360      9     0.00   0.65084   3 ;    H57-   C31-   C32-   H60
   358    147    148    359      9     0.00   0.65084   3 ;    H58-   C31-   C32-   H59
   358    147    148    360      9     0.00   0.65084   3 ;    H58-   C31-   C32-   H60
   361    150    151    363      9     0.00   0.65084   3 ;    H61-   C33-   C34-   H63
   361    150    151    364      9     0.00   0.65084   3 ;    H61-   C33-   C34-   H64
   362    150    151    363      9     0.00   0.65084   3 ;    H62-   C33-   C34-   H63
   362    150    151    364      9     0.00   0.65084   3 ;    H62-   C33-   C34-   H64
   365    153    154    367      9     0.00   0.65084   3 ;    H65-   C35-   C36-   H67
   365    153    154    368      9     0.00   0.65084   3 ;    H65-   C35-   C36-   H68
   366    153    154    367      9     0.00   0.65084   3 ;    H66-   C35-   C36-   H67
   366    153    154    368      9     0.00   0.65084   3 ;    H66-   C35-   C36-   H68

[ dihedrals ] ; impropers
; treated as propers in GROMACS to use correct AMBER analytical function
;    i      j      k      l   func   phase     kd      pn
     9     20     10     29      4   180.00   4.60240   2 ;    C47-   C58-   C48-   C67
    10     13      9    178      4   180.00   4.60240   2 ;    C48-   C51-   C47-   HXT
    25     33     28     32      4   180.00  43.93200   2 ;    C63-    N1-   C66-   O13
    28    121     33    324      4   180.00   4.60240   2 ;    C66-   C14-    N1-   H24
    42     53     43     62      4   180.00   4.60240   2 ;    C77-   C88-   C78-   C97
    43     46     42    372      4   180.00   4.60240   2 ;    C78-   C81-   C77-   H72
    58     66     61     65      4   180.00  43.93200   2 ;    C93-    N2-   C96-   O15
    61    100     66    373      4   180.00   4.60240   2 ;    C96-    C1-    N2-   H73
    75     86     76     95      4   180.00   4.60240   2 ;   C107-  C118-  C108-  C127
    76     79     75    271      4   180.00   4.60240   2 ;   C108-  C111-  C107-  H204
    91     99     94     98      4   180.00  43.93200   2 ;   C123-    N3-  C126-   O17
    94    141     99    348      4   180.00   4.60240   2 ;   C126-   C27-    N3-   H48
   113    118    114    115      4   180.00   4.60240   2 ;    C10-   C12-    N4-    N5
   117    321    118    114      4   180.00   4.60240   2 ;    C11-   H21-   C12-    N4
   119    118    117    116      4   180.00   4.60240   2 ;    C13-   C12-   C11-    N6
   134    139    135    136      4   180.00   4.60240   2 ;    C23-   C25-    N8-    N9
   138    345    139    135      4   180.00   4.60240   2 ;    C24-   H45-   C25-    N8
   140    139    138    137      4   180.00   4.60240   2 ;    C26-   C25-   C24-   N10
   154    159    155    156      4   180.00   4.60240   2 ;    C36-   C38-   N11-   N12
   158    369    159    155      4   180.00   4.60240   2 ;    C37-   H69-   C38-   N11
   160    159    158    157      4   180.00   4.60240   2 ;    C39-   C38-   C37-   N13

[ system ]
 UNK

[ molecules ]
; Compound        nmols
 UNK              1     
