;
;	File 'topol.top' was generated
;	By user: wangmengyang (1001)
;	On host: lthpc
;	At date: Tue Dec  2 09:36:56 2025
;
;	This is a standalone topology file
;
;	Created by:
;	              :-) GROMACS - gmx pdb2gmx, 2024.3-conda_forge (-:
;	
;	Executable:   /home/wangmengyang/miniconda3/envs/MMPBSA/bin.AVX2_256/gmx
;	Data prefix:  /home/wangmengyang/miniconda3/envs/MMPBSA
;	Working dir:  /data/workspace/wangmengyang/3LZG
;	Command line:
;	  gmx pdb2gmx -f 3LZG_protein.pdb -o protein.gro -water spc -ignh
;	Force field was read from the standard GROMACS share directory.
;

; Include forcefield parameters
#include "amber99sb.ff/forcefield.itp"

[ atomtypes ]
;name   bond_type     mass     charge   ptype   sigma         epsilon       Amb
 c3       c3          0.00000  0.00000   A     3.39967e-01   4.57730e-01 ; 1.91  0.1094
 c2       c2          0.00000  0.00000   A     3.39967e-01   3.59824e-01 ; 1.91  0.0860
 c        c           0.00000  0.00000   A     3.39967e-01   3.59824e-01 ; 1.91  0.0860
 oh       oh          0.00000  0.00000   A     3.06647e-01   8.80314e-01 ; 1.72  0.2104
 o        o           0.00000  0.00000   A     2.95992e-01   8.78640e-01 ; 1.66  0.2100
 n        n           0.00000  0.00000   A     3.25000e-01   7.11280e-01 ; 1.82  0.1700
 os       os          0.00000  0.00000   A     3.00001e-01   7.11280e-01 ; 1.68  0.1700
 na       na          0.00000  0.00000   A     3.25000e-01   7.11280e-01 ; 1.82  0.1700
 nc       nc          0.00000  0.00000   A     3.25000e-01   7.11280e-01 ; 1.82  0.1700
 nd       nd          0.00000  0.00000   A     3.25000e-01   7.11280e-01 ; 1.82  0.1700
 cd       cd          0.00000  0.00000   A     3.39967e-01   3.59824e-01 ; 1.91  0.0860
 cc       cc          0.00000  0.00000   A     3.39967e-01   3.59824e-01 ; 1.91  0.0860
 n3       n3          0.00000  0.00000   A     3.25000e-01   7.11280e-01 ; 1.82  0.1700
 hc       hc          0.00000  0.00000   A     2.64953e-01   6.56888e-02 ; 1.49  0.0157
 ha       ha          0.00000  0.00000   A     2.59964e-01   6.27600e-02 ; 1.46  0.0150
 h1       h1          0.00000  0.00000   A     2.47135e-01   6.56888e-02 ; 1.39  0.0157
 ho       ho          0.00000  0.00000   A     0.00000e+00   0.00000e+00 ; 0.00  0.0000
 h4       h4          0.00000  0.00000   A     2.51055e-01   6.27600e-02 ; 1.41  0.0150
 hn       hn          0.00000  0.00000   A     1.06908e-01   6.56888e-02 ; 0.60  0.0157

; Include chain topologies
#include "topol_Protein_chain_A.itp"
#include "topol_Protein_chain_B.itp"
#include "topol_Protein_chain_C.itp"
#include "topol_Protein_chain_D.itp"
#include "topol_Protein_chain_E.itp"
#include "topol_Protein_chain_F.itp"

; Include ligand topology
#include "UNK.itp"

; Include water topology
#include "amber99sb.ff/spc.itp"


#ifdef POSRES_WATER
; Position restraint for each water oxygen
[ position_restraints ]
;  i funct       fcx        fcy        fcz
   1    1       1000       1000       1000
#endif

; Include topology for ions
#include "amber99sb.ff/ions.itp"

[ system ]
; Name
2 HEMAGGLUTININ in water

[ molecules ]
; Compound        #mols
Protein_chain_A     1
Protein_chain_B     1
Protein_chain_C     1
Protein_chain_D     1
Protein_chain_E     1
Protein_chain_F     1
UNK                 1
SOL         89947
NA               11
